V -t * -v 1.0a5 -a 0
A -t * -n 1 -p 0 -o 0x7fffffff -c 30 -a 1
A -t * -h 1 -m 1073741823 -s 0
n -t * -a 0 -s 0 -S UP -v circle -c black -i black
n -t * -a 1 -s 1 -S UP -v circle -c black -i black
n -t * -a 2 -s 2 -S UP -v circle -c black -i black
n -t * -a 3 -s 3 -S UP -v circle -c black -i black
l -t * -s 0 -d 2 -S UP -r 2000000 -D 0.01 -c black
l -t * -s 1 -d 2 -S UP -r 2000000 -D 0.01 -c black
l -t * -s 2 -d 3 -S UP -r 2000000 -D 0.01 -c black
+ -t 0 -s 1 -d 2 -p tcp -e 40 -c 0 -i 0 -a 0 -x {1.0 3.1 0 ------- null}
- -t 0 -s 1 -d 2 -p tcp -e 40 -c 0 -i 0 -a 0 -x {1.0 3.1 0 ------- null}
h -t 0 -s 1 -d 2 -p tcp -e 40 -c 0 -i 0 -a 0 -x {1.0 3.1 -1 ------- null}
r -t 0.01016 -s 1 -d 2 -p tcp -e 40 -c 0 -i 0 -a 0 -x {1.0 3.1 0 ------- null}
+ -t 0.01016 -s 2 -d 3 -p tcp -e 40 -c 0 -i 0 -a 0 -x {1.0 3.1 0 ------- null}
- -t 0.01016 -s 2 -d 3 -p tcp -e 40 -c 0 -i 0 -a 0 -x {1.0 3.1 0 ------- null}
h -t 0.01016 -s 2 -d 3 -p tcp -e 40 -c 0 -i 0 -a 0 -x {1.0 3.1 -1 ------- null}
r -t 0.02032 -s 2 -d 3 -p tcp -e 40 -c 0 -i 0 -a 0 -x {1.0 3.1 0 ------- null}
+ -t 0.02032 -s 3 -d 2 -p ack -e 40 -c 0 -i 1 -a 0 -x {3.1 1.0 0 ------- null}
- -t 0.02032 -s 3 -d 2 -p ack -e 40 -c 0 -i 1 -a 0 -x {3.1 1.0 0 ------- null}
h -t 0.02032 -s 3 -d 2 -p ack -e 40 -c 0 -i 1 -a 0 -x {3.1 1.0 -1 ------- null}
r -t 0.03048 -s 3 -d 2 -p ack -e 40 -c 0 -i 1 -a 0 -x {3.1 1.0 0 ------- null}
+ -t 0.03048 -s 2 -d 1 -p ack -e 40 -c 0 -i 1 -a 0 -x {3.1 1.0 0 ------- null}
- -t 0.03048 -s 2 -d 1 -p ack -e 40 -c 0 -i 1 -a 0 -x {3.1 1.0 0 ------- null}
h -t 0.03048 -s 2 -d 1 -p ack -e 40 -c 0 -i 1 -a 0 -x {3.1 1.0 -1 ------- null}
r -t 0.04064 -s 2 -d 1 -p ack -e 40 -c 0 -i 1 -a 0 -x {3.1 1.0 0 ------- null}
+ -t 0.04064 -s 1 -d 2 -p tcp -e 1040 -c 0 -i 2 -a 0 -x {1.0 3.1 1 ------- null}
- -t 0.04064 -s 1 -d 2 -p tcp -e 1040 -c 0 -i 2 -a 0 -x {1.0 3.1 1 ------- null}
h -t 0.04064 -s 1 -d 2 -p tcp -e 1040 -c 0 -i 2 -a 0 -x {1.0 3.1 -1 ------- null}
+ -t 0.04064 -s 1 -d 2 -p tcp -e 1040 -c 0 -i 3 -a 0 -x {1.0 3.1 2 ------- null}
- -t 0.0448 -s 1 -d 2 -p tcp -e 1040 -c 0 -i 3 -a 0 -x {1.0 3.1 2 ------- null}
h -t 0.0448 -s 1 -d 2 -p tcp -e 1040 -c 0 -i 3 -a 0 -x {1.0 3.1 -1 ------- null}
r -t 0.0548 -s 1 -d 2 -p tcp -e 1040 -c 0 -i 2 -a 0 -x {1.0 3.1 1 ------- null}
+ -t 0.0548 -s 2 -d 3 -p tcp -e 1040 -c 0 -i 2 -a 0 -x {1.0 3.1 1 ------- null}
- -t 0.0548 -s 2 -d 3 -p tcp -e 1040 -c 0 -i 2 -a 0 -x {1.0 3.1 1 ------- null}
h -t 0.0548 -s 2 -d 3 -p tcp -e 1040 -c 0 -i 2 -a 0 -x {1.0 3.1 -1 ------- null}
r -t 0.05896 -s 1 -d 2 -p tcp -e 1040 -c 0 -i 3 -a 0 -x {1.0 3.1 2 ------- null}
+ -t 0.05896 -s 2 -d 3 -p tcp -e 1040 -c 0 -i 3 -a 0 -x {1.0 3.1 2 ------- null}
- -t 0.05896 -s 2 -d 3 -p tcp -e 1040 -c 0 -i 3 -a 0 -x {1.0 3.1 2 ------- null}
h -t 0.05896 -s 2 -d 3 -p tcp -e 1040 -c 0 -i 3 -a 0 -x {1.0 3.1 -1 ------- null}
r -t 0.06896 -s 2 -d 3 -p tcp -e 1040 -c 0 -i 2 -a 0 -x {1.0 3.1 1 ------- null}
+ -t 0.06896 -s 3 -d 2 -p ack -e 40 -c 0 -i 4 -a 0 -x {3.1 1.0 1 ------- null}
- -t 0.06896 -s 3 -d 2 -p ack -e 40 -c 0 -i 4 -a 0 -x {3.1 1.0 1 ------- null}
h -t 0.06896 -s 3 -d 2 -p ack -e 40 -c 0 -i 4 -a 0 -x {3.1 1.0 -1 ------- null}
r -t 0.07312 -s 2 -d 3 -p tcp -e 1040 -c 0 -i 3 -a 0 -x {1.0 3.1 2 ------- null}
+ -t 0.07312 -s 3 -d 2 -p ack -e 40 -c 0 -i 5 -a 0 -x {3.1 1.0 2 ------- null}
- -t 0.07312 -s 3 -d 2 -p ack -e 40 -c 0 -i 5 -a 0 -x {3.1 1.0 2 ------- null}
h -t 0.07312 -s 3 -d 2 -p ack -e 40 -c 0 -i 5 -a 0 -x {3.1 1.0 -1 ------- null}
r -t 0.07912 -s 3 -d 2 -p ack -e 40 -c 0 -i 4 -a 0 -x {3.1 1.0 1 ------- null}
+ -t 0.07912 -s 2 -d 1 -p ack -e 40 -c 0 -i 4 -a 0 -x {3.1 1.0 1 ------- null}
- -t 0.07912 -s 2 -d 1 -p ack -e 40 -c 0 -i 4 -a 0 -x {3.1 1.0 1 ------- null}
h -t 0.07912 -s 2 -d 1 -p ack -e 40 -c 0 -i 4 -a 0 -x {3.1 1.0 -1 ------- null}
r -t 0.08328 -s 3 -d 2 -p ack -e 40 -c 0 -i 5 -a 0 -x {3.1 1.0 2 ------- null}
+ -t 0.08328 -s 2 -d 1 -p ack -e 40 -c 0 -i 5 -a 0 -x {3.1 1.0 2 ------- null}
- -t 0.08328 -s 2 -d 1 -p ack -e 40 -c 0 -i 5 -a 0 -x {3.1 1.0 2 ------- null}
h -t 0.08328 -s 2 -d 1 -p ack -e 40 -c 0 -i 5 -a 0 -x {3.1 1.0 -1 ------- null}
r -t 0.08928 -s 2 -d 1 -p ack -e 40 -c 0 -i 4 -a 0 -x {3.1 1.0 1 ------- null}
+ -t 0.08928 -s 1 -d 2 -p tcp -e 1040 -c 0 -i 6 -a 0 -x {1.0 3.1 3 ------- null}
- -t 0.08928 -s 1 -d 2 -p tcp -e 1040 -c 0 -i 6 -a 0 -x {1.0 3.1 3 ------- null}
h -t 0.08928 -s 1 -d 2 -p tcp -e 1040 -c 0 -i 6 -a 0 -x {1.0 3.1 -1 ------- null}
+ -t 0.08928 -s 1 -d 2 -p tcp -e 1040 -c 0 -i 7 -a 0 -x {1.0 3.1 4 ------- null}
r -t 0.09344 -s 2 -d 1 -p ack -e 40 -c 0 -i 5 -a 0 -x {3.1 1.0 2 ------- null}
+ -t 0.09344 -s 1 -d 2 -p tcp -e 1040 -c 0 -i 8 -a 0 -x {1.0 3.1 5 ------- null}
+ -t 0.09344 -s 1 -d 2 -p tcp -e 1040 -c 0 -i 9 -a 0 -x {1.0 3.1 6 ------- null}
- -t 0.09344 -s 1 -d 2 -p tcp -e 1040 -c 0 -i 7 -a 0 -x {1.0 3.1 4 ------- null}
h -t 0.09344 -s 1 -d 2 -p tcp -e 1040 -c 0 -i 7 -a 0 -x {1.0 3.1 -1 ------- null}
- -t 0.0976 -s 1 -d 2 -p tcp -e 1040 -c 0 -i 8 -a 0 -x {1.0 3.1 5 ------- null}
h -t 0.0976 -s 1 -d 2 -p tcp -e 1040 -c 0 -i 8 -a 0 -x {1.0 3.1 -1 ------- null}
- -t 0.10176 -s 1 -d 2 -p tcp -e 1040 -c 0 -i 9 -a 0 -x {1.0 3.1 6 ------- null}
h -t 0.10176 -s 1 -d 2 -p tcp -e 1040 -c 0 -i 9 -a 0 -x {1.0 3.1 -1 ------- null}
r -t 0.10344 -s 1 -d 2 -p tcp -e 1040 -c 0 -i 6 -a 0 -x {1.0 3.1 3 ------- null}
+ -t 0.10344 -s 2 -d 3 -p tcp -e 1040 -c 0 -i 6 -a 0 -x {1.0 3.1 3 ------- null}
- -t 0.10344 -s 2 -d 3 -p tcp -e 1040 -c 0 -i 6 -a 0 -x {1.0 3.1 3 ------- null}
h -t 0.10344 -s 2 -d 3 -p tcp -e 1040 -c 0 -i 6 -a 0 -x {1.0 3.1 -1 ------- null}
r -t 0.1076 -s 1 -d 2 -p tcp -e 1040 -c 0 -i 7 -a 0 -x {1.0 3.1 4 ------- null}
+ -t 0.1076 -s 2 -d 3 -p tcp -e 1040 -c 0 -i 7 -a 0 -x {1.0 3.1 4 ------- null}
- -t 0.1076 -s 2 -d 3 -p tcp -e 1040 -c 0 -i 7 -a 0 -x {1.0 3.1 4 ------- null}
h -t 0.1076 -s 2 -d 3 -p tcp -e 1040 -c 0 -i 7 -a 0 -x {1.0 3.1 -1 ------- null}
r -t 0.11176 -s 1 -d 2 -p tcp -e 1040 -c 0 -i 8 -a 0 -x {1.0 3.1 5 ------- null}
+ -t 0.11176 -s 2 -d 3 -p tcp -e 1040 -c 0 -i 8 -a 0 -x {1.0 3.1 5 ------- null}
- -t 0.11176 -s 2 -d 3 -p tcp -e 1040 -c 0 -i 8 -a 0 -x {1.0 3.1 5 ------- null}
h -t 0.11176 -s 2 -d 3 -p tcp -e 1040 -c 0 -i 8 -a 0 -x {1.0 3.1 -1 ------- null}
r -t 0.11592 -s 1 -d 2 -p tcp -e 1040 -c 0 -i 9 -a 0 -x {1.0 3.1 6 ------- null}
+ -t 0.11592 -s 2 -d 3 -p tcp -e 1040 -c 0 -i 9 -a 0 -x {1.0 3.1 6 ------- null}
- -t 0.11592 -s 2 -d 3 -p tcp -e 1040 -c 0 -i 9 -a 0 -x {1.0 3.1 6 ------- null}
h -t 0.11592 -s 2 -d 3 -p tcp -e 1040 -c 0 -i 9 -a 0 -x {1.0 3.1 -1 ------- null}
r -t 0.1176 -s 2 -d 3 -p tcp -e 1040 -c 0 -i 6 -a 0 -x {1.0 3.1 3 ------- null}
+ -t 0.1176 -s 3 -d 2 -p ack -e 40 -c 0 -i 10 -a 0 -x {3.1 1.0 3 ------- null}
- -t 0.1176 -s 3 -d 2 -p ack -e 40 -c 0 -i 10 -a 0 -x {3.1 1.0 3 ------- null}
h -t 0.1176 -s 3 -d 2 -p ack -e 40 -c 0 -i 10 -a 0 -x {3.1 1.0 -1 ------- null}
r -t 0.12176 -s 2 -d 3 -p tcp -e 1040 -c 0 -i 7 -a 0 -x {1.0 3.1 4 ------- null}
+ -t 0.12176 -s 3 -d 2 -p ack -e 40 -c 0 -i 11 -a 0 -x {3.1 1.0 4 ------- null}
- -t 0.12176 -s 3 -d 2 -p ack -e 40 -c 0 -i 11 -a 0 -x {3.1 1.0 4 ------- null}
h -t 0.12176 -s 3 -d 2 -p ack -e 40 -c 0 -i 11 -a 0 -x {3.1 1.0 -1 ------- null}
r -t 0.12592 -s 2 -d 3 -p tcp -e 1040 -c 0 -i 8 -a 0 -x {1.0 3.1 5 ------- null}
+ -t 0.12592 -s 3 -d 2 -p ack -e 40 -c 0 -i 12 -a 0 -x {3.1 1.0 5 ------- null}
- -t 0.12592 -s 3 -d 2 -p ack -e 40 -c 0 -i 12 -a 0 -x {3.1 1.0 5 ------- null}
h -t 0.12592 -s 3 -d 2 -p ack -e 40 -c 0 -i 12 -a 0 -x {3.1 1.0 -1 ------- null}
r -t 0.12776 -s 3 -d 2 -p ack -e 40 -c 0 -i 10 -a 0 -x {3.1 1.0 3 ------- null}
+ -t 0.12776 -s 2 -d 1 -p ack -e 40 -c 0 -i 10 -a 0 -x {3.1 1.0 3 ------- null}
- -t 0.12776 -s 2 -d 1 -p ack -e 40 -c 0 -i 10 -a 0 -x {3.1 1.0 3 ------- null}
h -t 0.12776 -s 2 -d 1 -p ack -e 40 -c 0 -i 10 -a 0 -x {3.1 1.0 -1 ------- null}
r -t 0.13008 -s 2 -d 3 -p tcp -e 1040 -c 0 -i 9 -a 0 -x {1.0 3.1 6 ------- null}
+ -t 0.13008 -s 3 -d 2 -p ack -e 40 -c 0 -i 13 -a 0 -x {3.1 1.0 6 ------- null}
- -t 0.13008 -s 3 -d 2 -p ack -e 40 -c 0 -i 13 -a 0 -x {3.1 1.0 6 ------- null}
h -t 0.13008 -s 3 -d 2 -p ack -e 40 -c 0 -i 13 -a 0 -x {3.1 1.0 -1 ------- null}
r -t 0.13192 -s 3 -d 2 -p ack -e 40 -c 0 -i 11 -a 0 -x {3.1 1.0 4 ------- null}
+ -t 0.13192 -s 2 -d 1 -p ack -e 40 -c 0 -i 11 -a 0 -x {3.1 1.0 4 ------- null}
- -t 0.13192 -s 2 -d 1 -p ack -e 40 -c 0 -i 11 -a 0 -x {3.1 1.0 4 ------- null}
h -t 0.13192 -s 2 -d 1 -p ack -e 40 -c 0 -i 11 -a 0 -x {3.1 1.0 -1 ------- null}
r -t 0.13608 -s 3 -d 2 -p ack -e 40 -c 0 -i 12 -a 0 -x {3.1 1.0 5 ------- null}
+ -t 0.13608 -s 2 -d 1 -p ack -e 40 -c 0 -i 12 -a 0 -x {3.1 1.0 5 ------- null}
- -t 0.13608 -s 2 -d 1 -p ack -e 40 -c 0 -i 12 -a 0 -x {3.1 1.0 5 ------- null}
h -t 0.13608 -s 2 -d 1 -p ack -e 40 -c 0 -i 12 -a 0 -x {3.1 1.0 -1 ------- null}
r -t 0.13792 -s 2 -d 1 -p ack -e 40 -c 0 -i 10 -a 0 -x {3.1 1.0 3 ------- null}
+ -t 0.13792 -s 1 -d 2 -p tcp -e 1040 -c 0 -i 14 -a 0 -x {1.0 3.1 7 ------- null}
- -t 0.13792 -s 1 -d 2 -p tcp -e 1040 -c 0 -i 14 -a 0 -x {1.0 3.1 7 ------- null}
h -t 0.13792 -s 1 -d 2 -p tcp -e 1040 -c 0 -i 14 -a 0 -x {1.0 3.1 -1 ------- null}
+ -t 0.13792 -s 1 -d 2 -p tcp -e 1040 -c 0 -i 15 -a 0 -x {1.0 3.1 8 ------- null}
r -t 0.14024 -s 3 -d 2 -p ack -e 40 -c 0 -i 13 -a 0 -x {3.1 1.0 6 ------- null}
+ -t 0.14024 -s 2 -d 1 -p ack -e 40 -c 0 -i 13 -a 0 -x {3.1 1.0 6 ------- null}
- -t 0.14024 -s 2 -d 1 -p ack -e 40 -c 0 -i 13 -a 0 -x {3.1 1.0 6 ------- null}
h -t 0.14024 -s 2 -d 1 -p ack -e 40 -c 0 -i 13 -a 0 -x {3.1 1.0 -1 ------- null}
r -t 0.14208 -s 2 -d 1 -p ack -e 40 -c 0 -i 11 -a 0 -x {3.1 1.0 4 ------- null}
+ -t 0.14208 -s 1 -d 2 -p tcp -e 1040 -c 0 -i 16 -a 0 -x {1.0 3.1 9 ------- null}
+ -t 0.14208 -s 1 -d 2 -p tcp -e 1040 -c 0 -i 17 -a 0 -x {1.0 3.1 10 ------- null}
- -t 0.14208 -s 1 -d 2 -p tcp -e 1040 -c 0 -i 15 -a 0 -x {1.0 3.1 8 ------- null}
h -t 0.14208 -s 1 -d 2 -p tcp -e 1040 -c 0 -i 15 -a 0 -x {1.0 3.1 -1 ------- null}
r -t 0.14624 -s 2 -d 1 -p ack -e 40 -c 0 -i 12 -a 0 -x {3.1 1.0 5 ------- null}
+ -t 0.14624 -s 1 -d 2 -p tcp -e 1040 -c 0 -i 18 -a 0 -x {1.0 3.1 11 ------- null}
+ -t 0.14624 -s 1 -d 2 -p tcp -e 1040 -c 0 -i 19 -a 0 -x {1.0 3.1 12 ------- null}
- -t 0.14624 -s 1 -d 2 -p tcp -e 1040 -c 0 -i 16 -a 0 -x {1.0 3.1 9 ------- null}
h -t 0.14624 -s 1 -d 2 -p tcp -e 1040 -c 0 -i 16 -a 0 -x {1.0 3.1 -1 ------- null}
r -t 0.1504 -s 2 -d 1 -p ack -e 40 -c 0 -i 13 -a 0 -x {3.1 1.0 6 ------- null}
+ -t 0.1504 -s 1 -d 2 -p tcp -e 1040 -c 0 -i 20 -a 0 -x {1.0 3.1 13 ------- null}
+ -t 0.1504 -s 1 -d 2 -p tcp -e 1040 -c 0 -i 21 -a 0 -x {1.0 3.1 14 ------- null}
- -t 0.1504 -s 1 -d 2 -p tcp -e 1040 -c 0 -i 17 -a 0 -x {1.0 3.1 10 ------- null}
h -t 0.1504 -s 1 -d 2 -p tcp -e 1040 -c 0 -i 17 -a 0 -x {1.0 3.1 -1 ------- null}
r -t 0.15208 -s 1 -d 2 -p tcp -e 1040 -c 0 -i 14 -a 0 -x {1.0 3.1 7 ------- null}
+ -t 0.15208 -s 2 -d 3 -p tcp -e 1040 -c 0 -i 14 -a 0 -x {1.0 3.1 7 ------- null}
- -t 0.15208 -s 2 -d 3 -p tcp -e 1040 -c 0 -i 14 -a 0 -x {1.0 3.1 7 ------- null}
h -t 0.15208 -s 2 -d 3 -p tcp -e 1040 -c 0 -i 14 -a 0 -x {1.0 3.1 -1 ------- null}
- -t 0.15456 -s 1 -d 2 -p tcp -e 1040 -c 0 -i 18 -a 0 -x {1.0 3.1 11 ------- null}
h -t 0.15456 -s 1 -d 2 -p tcp -e 1040 -c 0 -i 18 -a 0 -x {1.0 3.1 -1 ------- null}
r -t 0.15624 -s 1 -d 2 -p tcp -e 1040 -c 0 -i 15 -a 0 -x {1.0 3.1 8 ------- null}
+ -t 0.15624 -s 2 -d 3 -p tcp -e 1040 -c 0 -i 15 -a 0 -x {1.0 3.1 8 ------- null}
- -t 0.15624 -s 2 -d 3 -p tcp -e 1040 -c 0 -i 15 -a 0 -x {1.0 3.1 8 ------- null}
h -t 0.15624 -s 2 -d 3 -p tcp -e 1040 -c 0 -i 15 -a 0 -x {1.0 3.1 -1 ------- null}
- -t 0.15872 -s 1 -d 2 -p tcp -e 1040 -c 0 -i 19 -a 0 -x {1.0 3.1 12 ------- null}
h -t 0.15872 -s 1 -d 2 -p tcp -e 1040 -c 0 -i 19 -a 0 -x {1.0 3.1 -1 ------- null}
r -t 0.1604 -s 1 -d 2 -p tcp -e 1040 -c 0 -i 16 -a 0 -x {1.0 3.1 9 ------- null}
+ -t 0.1604 -s 2 -d 3 -p tcp -e 1040 -c 0 -i 16 -a 0 -x {1.0 3.1 9 ------- null}
- -t 0.1604 -s 2 -d 3 -p tcp -e 1040 -c 0 -i 16 -a 0 -x {1.0 3.1 9 ------- null}
h -t 0.1604 -s 2 -d 3 -p tcp -e 1040 -c 0 -i 16 -a 0 -x {1.0 3.1 -1 ------- null}
- -t 0.16288 -s 1 -d 2 -p tcp -e 1040 -c 0 -i 20 -a 0 -x {1.0 3.1 13 ------- null}
h -t 0.16288 -s 1 -d 2 -p tcp -e 1040 -c 0 -i 20 -a 0 -x {1.0 3.1 -1 ------- null}
r -t 0.16456 -s 1 -d 2 -p tcp -e 1040 -c 0 -i 17 -a 0 -x {1.0 3.1 10 ------- null}
+ -t 0.16456 -s 2 -d 3 -p tcp -e 1040 -c 0 -i 17 -a 0 -x {1.0 3.1 10 ------- null}
- -t 0.16456 -s 2 -d 3 -p tcp -e 1040 -c 0 -i 17 -a 0 -x {1.0 3.1 10 ------- null}
h -t 0.16456 -s 2 -d 3 -p tcp -e 1040 -c 0 -i 17 -a 0 -x {1.0 3.1 -1 ------- null}
r -t 0.16624 -s 2 -d 3 -p tcp -e 1040 -c 0 -i 14 -a 0 -x {1.0 3.1 7 ------- null}
+ -t 0.16624 -s 3 -d 2 -p ack -e 40 -c 0 -i 22 -a 0 -x {3.1 1.0 7 ------- null}
- -t 0.16624 -s 3 -d 2 -p ack -e 40 -c 0 -i 22 -a 0 -x {3.1 1.0 7 ------- null}
h -t 0.16624 -s 3 -d 2 -p ack -e 40 -c 0 -i 22 -a 0 -x {3.1 1.0 -1 ------- null}
- -t 0.16704 -s 1 -d 2 -p tcp -e 1040 -c 0 -i 21 -a 0 -x {1.0 3.1 14 ------- null}
h -t 0.16704 -s 1 -d 2 -p tcp -e 1040 -c 0 -i 21 -a 0 -x {1.0 3.1 -1 ------- null}
r -t 0.16872 -s 1 -d 2 -p tcp -e 1040 -c 0 -i 18 -a 0 -x {1.0 3.1 11 ------- null}
+ -t 0.16872 -s 2 -d 3 -p tcp -e 1040 -c 0 -i 18 -a 0 -x {1.0 3.1 11 ------- null}
- -t 0.16872 -s 2 -d 3 -p tcp -e 1040 -c 0 -i 18 -a 0 -x {1.0 3.1 11 ------- null}
h -t 0.16872 -s 2 -d 3 -p tcp -e 1040 -c 0 -i 18 -a 0 -x {1.0 3.1 -1 ------- null}
r -t 0.1704 -s 2 -d 3 -p tcp -e 1040 -c 0 -i 15 -a 0 -x {1.0 3.1 8 ------- null}
+ -t 0.1704 -s 3 -d 2 -p ack -e 40 -c 0 -i 23 -a 0 -x {3.1 1.0 8 ------- null}
- -t 0.1704 -s 3 -d 2 -p ack -e 40 -c 0 -i 23 -a 0 -x {3.1 1.0 8 ------- null}
h -t 0.1704 -s 3 -d 2 -p ack -e 40 -c 0 -i 23 -a 0 -x {3.1 1.0 -1 ------- null}
r -t 0.17288 -s 1 -d 2 -p tcp -e 1040 -c 0 -i 19 -a 0 -x {1.0 3.1 12 ------- null}
+ -t 0.17288 -s 2 -d 3 -p tcp -e 1040 -c 0 -i 19 -a 0 -x {1.0 3.1 12 ------- null}
- -t 0.17288 -s 2 -d 3 -p tcp -e 1040 -c 0 -i 19 -a 0 -x {1.0 3.1 12 ------- null}
h -t 0.17288 -s 2 -d 3 -p tcp -e 1040 -c 0 -i 19 -a 0 -x {1.0 3.1 -1 ------- null}
r -t 0.17456 -s 2 -d 3 -p tcp -e 1040 -c 0 -i 16 -a 0 -x {1.0 3.1 9 ------- null}
+ -t 0.17456 -s 3 -d 2 -p ack -e 40 -c 0 -i 24 -a 0 -x {3.1 1.0 9 ------- null}
- -t 0.17456 -s 3 -d 2 -p ack -e 40 -c 0 -i 24 -a 0 -x {3.1 1.0 9 ------- null}
h -t 0.17456 -s 3 -d 2 -p ack -e 40 -c 0 -i 24 -a 0 -x {3.1 1.0 -1 ------- null}
r -t 0.1764 -s 3 -d 2 -p ack -e 40 -c 0 -i 22 -a 0 -x {3.1 1.0 7 ------- null}
+ -t 0.1764 -s 2 -d 1 -p ack -e 40 -c 0 -i 22 -a 0 -x {3.1 1.0 7 ------- null}
- -t 0.1764 -s 2 -d 1 -p ack -e 40 -c 0 -i 22 -a 0 -x {3.1 1.0 7 ------- null}
h -t 0.1764 -s 2 -d 1 -p ack -e 40 -c 0 -i 22 -a 0 -x {3.1 1.0 -1 ------- null}
r -t 0.17704 -s 1 -d 2 -p tcp -e 1040 -c 0 -i 20 -a 0 -x {1.0 3.1 13 ------- null}
+ -t 0.17704 -s 2 -d 3 -p tcp -e 1040 -c 0 -i 20 -a 0 -x {1.0 3.1 13 ------- null}
- -t 0.17704 -s 2 -d 3 -p tcp -e 1040 -c 0 -i 20 -a 0 -x {1.0 3.1 13 ------- null}
h -t 0.17704 -s 2 -d 3 -p tcp -e 1040 -c 0 -i 20 -a 0 -x {1.0 3.1 -1 ------- null}
r -t 0.17872 -s 2 -d 3 -p tcp -e 1040 -c 0 -i 17 -a 0 -x {1.0 3.1 10 ------- null}
+ -t 0.17872 -s 3 -d 2 -p ack -e 40 -c 0 -i 25 -a 0 -x {3.1 1.0 10 ------- null}
- -t 0.17872 -s 3 -d 2 -p ack -e 40 -c 0 -i 25 -a 0 -x {3.1 1.0 10 ------- null}
h -t 0.17872 -s 3 -d 2 -p ack -e 40 -c 0 -i 25 -a 0 -x {3.1 1.0 -1 ------- null}
r -t 0.18056 -s 3 -d 2 -p ack -e 40 -c 0 -i 23 -a 0 -x {3.1 1.0 8 ------- null}
+ -t 0.18056 -s 2 -d 1 -p ack -e 40 -c 0 -i 23 -a 0 -x {3.1 1.0 8 ------- null}
- -t 0.18056 -s 2 -d 1 -p ack -e 40 -c 0 -i 23 -a 0 -x {3.1 1.0 8 ------- null}
h -t 0.18056 -s 2 -d 1 -p ack -e 40 -c 0 -i 23 -a 0 -x {3.1 1.0 -1 ------- null}
r -t 0.1812 -s 1 -d 2 -p tcp -e 1040 -c 0 -i 21 -a 0 -x {1.0 3.1 14 ------- null}
+ -t 0.1812 -s 2 -d 3 -p tcp -e 1040 -c 0 -i 21 -a 0 -x {1.0 3.1 14 ------- null}
- -t 0.1812 -s 2 -d 3 -p tcp -e 1040 -c 0 -i 21 -a 0 -x {1.0 3.1 14 ------- null}
h -t 0.1812 -s 2 -d 3 -p tcp -e 1040 -c 0 -i 21 -a 0 -x {1.0 3.1 -1 ------- null}
r -t 0.18288 -s 2 -d 3 -p tcp -e 1040 -c 0 -i 18 -a 0 -x {1.0 3.1 11 ------- null}
+ -t 0.18288 -s 3 -d 2 -p ack -e 40 -c 0 -i 26 -a 0 -x {3.1 1.0 11 ------- null}
- -t 0.18288 -s 3 -d 2 -p ack -e 40 -c 0 -i 26 -a 0 -x {3.1 1.0 11 ------- null}
h -t 0.18288 -s 3 -d 2 -p ack -e 40 -c 0 -i 26 -a 0 -x {3.1 1.0 -1 ------- null}
r -t 0.18472 -s 3 -d 2 -p ack -e 40 -c 0 -i 24 -a 0 -x {3.1 1.0 9 ------- null}
+ -t 0.18472 -s 2 -d 1 -p ack -e 40 -c 0 -i 24 -a 0 -x {3.1 1.0 9 ------- null}
- -t 0.18472 -s 2 -d 1 -p ack -e 40 -c 0 -i 24 -a 0 -x {3.1 1.0 9 ------- null}
h -t 0.18472 -s 2 -d 1 -p ack -e 40 -c 0 -i 24 -a 0 -x {3.1 1.0 -1 ------- null}
r -t 0.18656 -s 2 -d 1 -p ack -e 40 -c 0 -i 22 -a 0 -x {3.1 1.0 7 ------- null}
+ -t 0.18656 -s 1 -d 2 -p tcp -e 1040 -c 0 -i 27 -a 0 -x {1.0 3.1 15 ------- null}
- -t 0.18656 -s 1 -d 2 -p tcp -e 1040 -c 0 -i 27 -a 0 -x {1.0 3.1 15 ------- null}
h -t 0.18656 -s 1 -d 2 -p tcp -e 1040 -c 0 -i 27 -a 0 -x {1.0 3.1 -1 ------- null}
+ -t 0.18656 -s 1 -d 2 -p tcp -e 1040 -c 0 -i 28 -a 0 -x {1.0 3.1 16 ------- null}
r -t 0.18704 -s 2 -d 3 -p tcp -e 1040 -c 0 -i 19 -a 0 -x {1.0 3.1 12 ------- null}
+ -t 0.18704 -s 3 -d 2 -p ack -e 40 -c 0 -i 29 -a 0 -x {3.1 1.0 12 ------- null}
- -t 0.18704 -s 3 -d 2 -p ack -e 40 -c 0 -i 29 -a 0 -x {3.1 1.0 12 ------- null}
h -t 0.18704 -s 3 -d 2 -p ack -e 40 -c 0 -i 29 -a 0 -x {3.1 1.0 -1 ------- null}
r -t 0.18888 -s 3 -d 2 -p ack -e 40 -c 0 -i 25 -a 0 -x {3.1 1.0 10 ------- null}
+ -t 0.18888 -s 2 -d 1 -p ack -e 40 -c 0 -i 25 -a 0 -x {3.1 1.0 10 ------- null}
- -t 0.18888 -s 2 -d 1 -p ack -e 40 -c 0 -i 25 -a 0 -x {3.1 1.0 10 ------- null}
h -t 0.18888 -s 2 -d 1 -p ack -e 40 -c 0 -i 25 -a 0 -x {3.1 1.0 -1 ------- null}
r -t 0.19072 -s 2 -d 1 -p ack -e 40 -c 0 -i 23 -a 0 -x {3.1 1.0 8 ------- null}
+ -t 0.19072 -s 1 -d 2 -p tcp -e 1040 -c 0 -i 30 -a 0 -x {1.0 3.1 17 ------- null}
+ -t 0.19072 -s 1 -d 2 -p tcp -e 1040 -c 0 -i 31 -a 0 -x {1.0 3.1 18 ------- null}
- -t 0.19072 -s 1 -d 2 -p tcp -e 1040 -c 0 -i 28 -a 0 -x {1.0 3.1 16 ------- null}
h -t 0.19072 -s 1 -d 2 -p tcp -e 1040 -c 0 -i 28 -a 0 -x {1.0 3.1 -1 ------- null}
r -t 0.1912 -s 2 -d 3 -p tcp -e 1040 -c 0 -i 20 -a 0 -x {1.0 3.1 13 ------- null}
+ -t 0.1912 -s 3 -d 2 -p ack -e 40 -c 0 -i 32 -a 0 -x {3.1 1.0 13 ------- null}
- -t 0.1912 -s 3 -d 2 -p ack -e 40 -c 0 -i 32 -a 0 -x {3.1 1.0 13 ------- null}
h -t 0.1912 -s 3 -d 2 -p ack -e 40 -c 0 -i 32 -a 0 -x {3.1 1.0 -1 ------- null}
r -t 0.19304 -s 3 -d 2 -p ack -e 40 -c 0 -i 26 -a 0 -x {3.1 1.0 11 ------- null}
+ -t 0.19304 -s 2 -d 1 -p ack -e 40 -c 0 -i 26 -a 0 -x {3.1 1.0 11 ------- null}
- -t 0.19304 -s 2 -d 1 -p ack -e 40 -c 0 -i 26 -a 0 -x {3.1 1.0 11 ------- null}
h -t 0.19304 -s 2 -d 1 -p ack -e 40 -c 0 -i 26 -a 0 -x {3.1 1.0 -1 ------- null}
r -t 0.19488 -s 2 -d 1 -p ack -e 40 -c 0 -i 24 -a 0 -x {3.1 1.0 9 ------- null}
+ -t 0.19488 -s 1 -d 2 -p tcp -e 1040 -c 0 -i 33 -a 0 -x {1.0 3.1 19 ------- null}
+ -t 0.19488 -s 1 -d 2 -p tcp -e 1040 -c 0 -i 34 -a 0 -x {1.0 3.1 20 ------- null}
- -t 0.19488 -s 1 -d 2 -p tcp -e 1040 -c 0 -i 30 -a 0 -x {1.0 3.1 17 ------- null}
h -t 0.19488 -s 1 -d 2 -p tcp -e 1040 -c 0 -i 30 -a 0 -x {1.0 3.1 -1 ------- null}
r -t 0.19536 -s 2 -d 3 -p tcp -e 1040 -c 0 -i 21 -a 0 -x {1.0 3.1 14 ------- null}
+ -t 0.19536 -s 3 -d 2 -p ack -e 40 -c 0 -i 35 -a 0 -x {3.1 1.0 14 ------- null}
- -t 0.19536 -s 3 -d 2 -p ack -e 40 -c 0 -i 35 -a 0 -x {3.1 1.0 14 ------- null}
h -t 0.19536 -s 3 -d 2 -p ack -e 40 -c 0 -i 35 -a 0 -x {3.1 1.0 -1 ------- null}
r -t 0.1972 -s 3 -d 2 -p ack -e 40 -c 0 -i 29 -a 0 -x {3.1 1.0 12 ------- null}
+ -t 0.1972 -s 2 -d 1 -p ack -e 40 -c 0 -i 29 -a 0 -x {3.1 1.0 12 ------- null}
- -t 0.1972 -s 2 -d 1 -p ack -e 40 -c 0 -i 29 -a 0 -x {3.1 1.0 12 ------- null}
h -t 0.1972 -s 2 -d 1 -p ack -e 40 -c 0 -i 29 -a 0 -x {3.1 1.0 -1 ------- null}
r -t 0.19904 -s 2 -d 1 -p ack -e 40 -c 0 -i 25 -a 0 -x {3.1 1.0 10 ------- null}
+ -t 0.19904 -s 1 -d 2 -p tcp -e 1040 -c 0 -i 36 -a 0 -x {1.0 3.1 21 ------- null}
+ -t 0.19904 -s 1 -d 2 -p tcp -e 1040 -c 0 -i 37 -a 0 -x {1.0 3.1 22 ------- null}
- -t 0.19904 -s 1 -d 2 -p tcp -e 1040 -c 0 -i 31 -a 0 -x {1.0 3.1 18 ------- null}
h -t 0.19904 -s 1 -d 2 -p tcp -e 1040 -c 0 -i 31 -a 0 -x {1.0 3.1 -1 ------- null}
r -t 0.20072 -s 1 -d 2 -p tcp -e 1040 -c 0 -i 27 -a 0 -x {1.0 3.1 15 ------- null}
+ -t 0.20072 -s 2 -d 3 -p tcp -e 1040 -c 0 -i 27 -a 0 -x {1.0 3.1 15 ------- null}
- -t 0.20072 -s 2 -d 3 -p tcp -e 1040 -c 0 -i 27 -a 0 -x {1.0 3.1 15 ------- null}
h -t 0.20072 -s 2 -d 3 -p tcp -e 1040 -c 0 -i 27 -a 0 -x {1.0 3.1 -1 ------- null}
r -t 0.20136 -s 3 -d 2 -p ack -e 40 -c 0 -i 32 -a 0 -x {3.1 1.0 13 ------- null}
+ -t 0.20136 -s 2 -d 1 -p ack -e 40 -c 0 -i 32 -a 0 -x {3.1 1.0 13 ------- null}
- -t 0.20136 -s 2 -d 1 -p ack -e 40 -c 0 -i 32 -a 0 -x {3.1 1.0 13 ------- null}
h -t 0.20136 -s 2 -d 1 -p ack -e 40 -c 0 -i 32 -a 0 -x {3.1 1.0 -1 ------- null}
r -t 0.2032 -s 2 -d 1 -p ack -e 40 -c 0 -i 26 -a 0 -x {3.1 1.0 11 ------- null}
+ -t 0.2032 -s 1 -d 2 -p tcp -e 1040 -c 0 -i 38 -a 0 -x {1.0 3.1 23 ------- null}
+ -t 0.2032 -s 1 -d 2 -p tcp -e 1040 -c 0 -i 39 -a 0 -x {1.0 3.1 24 ------- null}
- -t 0.2032 -s 1 -d 2 -p tcp -e 1040 -c 0 -i 33 -a 0 -x {1.0 3.1 19 ------- null}
h -t 0.2032 -s 1 -d 2 -p tcp -e 1040 -c 0 -i 33 -a 0 -x {1.0 3.1 -1 ------- null}
r -t 0.20488 -s 1 -d 2 -p tcp -e 1040 -c 0 -i 28 -a 0 -x {1.0 3.1 16 ------- null}
+ -t 0.20488 -s 2 -d 3 -p tcp -e 1040 -c 0 -i 28 -a 0 -x {1.0 3.1 16 ------- null}
- -t 0.20488 -s 2 -d 3 -p tcp -e 1040 -c 0 -i 28 -a 0 -x {1.0 3.1 16 ------- null}
h -t 0.20488 -s 2 -d 3 -p tcp -e 1040 -c 0 -i 28 -a 0 -x {1.0 3.1 -1 ------- null}
r -t 0.20552 -s 3 -d 2 -p ack -e 40 -c 0 -i 35 -a 0 -x {3.1 1.0 14 ------- null}
+ -t 0.20552 -s 2 -d 1 -p ack -e 40 -c 0 -i 35 -a 0 -x {3.1 1.0 14 ------- null}
- -t 0.20552 -s 2 -d 1 -p ack -e 40 -c 0 -i 35 -a 0 -x {3.1 1.0 14 ------- null}
h -t 0.20552 -s 2 -d 1 -p ack -e 40 -c 0 -i 35 -a 0 -x {3.1 1.0 -1 ------- null}
r -t 0.20736 -s 2 -d 1 -p ack -e 40 -c 0 -i 29 -a 0 -x {3.1 1.0 12 ------- null}
+ -t 0.20736 -s 1 -d 2 -p tcp -e 1040 -c 0 -i 40 -a 0 -x {1.0 3.1 25 ------- null}
+ -t 0.20736 -s 1 -d 2 -p tcp -e 1040 -c 0 -i 41 -a 0 -x {1.0 3.1 26 ------- null}
- -t 0.20736 -s 1 -d 2 -p tcp -e 1040 -c 0 -i 34 -a 0 -x {1.0 3.1 20 ------- null}
h -t 0.20736 -s 1 -d 2 -p tcp -e 1040 -c 0 -i 34 -a 0 -x {1.0 3.1 -1 ------- null}
r -t 0.20904 -s 1 -d 2 -p tcp -e 1040 -c 0 -i 30 -a 0 -x {1.0 3.1 17 ------- null}
+ -t 0.20904 -s 2 -d 3 -p tcp -e 1040 -c 0 -i 30 -a 0 -x {1.0 3.1 17 ------- null}
- -t 0.20904 -s 2 -d 3 -p tcp -e 1040 -c 0 -i 30 -a 0 -x {1.0 3.1 17 ------- null}
h -t 0.20904 -s 2 -d 3 -p tcp -e 1040 -c 0 -i 30 -a 0 -x {1.0 3.1 -1 ------- null}
r -t 0.21152 -s 2 -d 1 -p ack -e 40 -c 0 -i 32 -a 0 -x {3.1 1.0 13 ------- null}
+ -t 0.21152 -s 1 -d 2 -p tcp -e 1040 -c 0 -i 42 -a 0 -x {1.0 3.1 27 ------- null}
+ -t 0.21152 -s 1 -d 2 -p tcp -e 1040 -c 0 -i 43 -a 0 -x {1.0 3.1 28 ------- null}
- -t 0.21152 -s 1 -d 2 -p tcp -e 1040 -c 0 -i 36 -a 0 -x {1.0 3.1 21 ------- null}
h -t 0.21152 -s 1 -d 2 -p tcp -e 1040 -c 0 -i 36 -a 0 -x {1.0 3.1 -1 ------- null}
r -t 0.2132 -s 1 -d 2 -p tcp -e 1040 -c 0 -i 31 -a 0 -x {1.0 3.1 18 ------- null}
+ -t 0.2132 -s 2 -d 3 -p tcp -e 1040 -c 0 -i 31 -a 0 -x {1.0 3.1 18 ------- null}
- -t 0.2132 -s 2 -d 3 -p tcp -e 1040 -c 0 -i 31 -a 0 -x {1.0 3.1 18 ------- null}
h -t 0.2132 -s 2 -d 3 -p tcp -e 1040 -c 0 -i 31 -a 0 -x {1.0 3.1 -1 ------- null}
r -t 0.21488 -s 2 -d 3 -p tcp -e 1040 -c 0 -i 27 -a 0 -x {1.0 3.1 15 ------- null}
+ -t 0.21488 -s 3 -d 2 -p ack -e 40 -c 0 -i 44 -a 0 -x {3.1 1.0 15 ------- null}
- -t 0.21488 -s 3 -d 2 -p ack -e 40 -c 0 -i 44 -a 0 -x {3.1 1.0 15 ------- null}
h -t 0.21488 -s 3 -d 2 -p ack -e 40 -c 0 -i 44 -a 0 -x {3.1 1.0 -1 ------- null}
r -t 0.21568 -s 2 -d 1 -p ack -e 40 -c 0 -i 35 -a 0 -x {3.1 1.0 14 ------- null}
+ -t 0.21568 -s 1 -d 2 -p tcp -e 1040 -c 0 -i 45 -a 0 -x {1.0 3.1 29 ------- null}
+ -t 0.21568 -s 1 -d 2 -p tcp -e 1040 -c 0 -i 46 -a 0 -x {1.0 3.1 30 ------- null}
- -t 0.21568 -s 1 -d 2 -p tcp -e 1040 -c 0 -i 37 -a 0 -x {1.0 3.1 22 ------- null}
h -t 0.21568 -s 1 -d 2 -p tcp -e 1040 -c 0 -i 37 -a 0 -x {1.0 3.1 -1 ------- null}
r -t 0.21736 -s 1 -d 2 -p tcp -e 1040 -c 0 -i 33 -a 0 -x {1.0 3.1 19 ------- null}
+ -t 0.21736 -s 2 -d 3 -p tcp -e 1040 -c 0 -i 33 -a 0 -x {1.0 3.1 19 ------- null}
- -t 0.21736 -s 2 -d 3 -p tcp -e 1040 -c 0 -i 33 -a 0 -x {1.0 3.1 19 ------- null}
h -t 0.21736 -s 2 -d 3 -p tcp -e 1040 -c 0 -i 33 -a 0 -x {1.0 3.1 -1 ------- null}
r -t 0.21904 -s 2 -d 3 -p tcp -e 1040 -c 0 -i 28 -a 0 -x {1.0 3.1 16 ------- null}
+ -t 0.21904 -s 3 -d 2 -p ack -e 40 -c 0 -i 47 -a 0 -x {3.1 1.0 16 ------- null}
- -t 0.21904 -s 3 -d 2 -p ack -e 40 -c 0 -i 47 -a 0 -x {3.1 1.0 16 ------- null}
h -t 0.21904 -s 3 -d 2 -p ack -e 40 -c 0 -i 47 -a 0 -x {3.1 1.0 -1 ------- null}
- -t 0.21984 -s 1 -d 2 -p tcp -e 1040 -c 0 -i 38 -a 0 -x {1.0 3.1 23 ------- null}
h -t 0.21984 -s 1 -d 2 -p tcp -e 1040 -c 0 -i 38 -a 0 -x {1.0 3.1 -1 ------- null}
r -t 0.22152 -s 1 -d 2 -p tcp -e 1040 -c 0 -i 34 -a 0 -x {1.0 3.1 20 ------- null}
+ -t 0.22152 -s 2 -d 3 -p tcp -e 1040 -c 0 -i 34 -a 0 -x {1.0 3.1 20 ------- null}
- -t 0.22152 -s 2 -d 3 -p tcp -e 1040 -c 0 -i 34 -a 0 -x {1.0 3.1 20 ------- null}
h -t 0.22152 -s 2 -d 3 -p tcp -e 1040 -c 0 -i 34 -a 0 -x {1.0 3.1 -1 ------- null}
r -t 0.2232 -s 2 -d 3 -p tcp -e 1040 -c 0 -i 30 -a 0 -x {1.0 3.1 17 ------- null}
+ -t 0.2232 -s 3 -d 2 -p ack -e 40 -c 0 -i 48 -a 0 -x {3.1 1.0 17 ------- null}
- -t 0.2232 -s 3 -d 2 -p ack -e 40 -c 0 -i 48 -a 0 -x {3.1 1.0 17 ------- null}
h -t 0.2232 -s 3 -d 2 -p ack -e 40 -c 0 -i 48 -a 0 -x {3.1 1.0 -1 ------- null}
- -t 0.224 -s 1 -d 2 -p tcp -e 1040 -c 0 -i 39 -a 0 -x {1.0 3.1 24 ------- null}
h -t 0.224 -s 1 -d 2 -p tcp -e 1040 -c 0 -i 39 -a 0 -x {1.0 3.1 -1 ------- null}
r -t 0.22504 -s 3 -d 2 -p ack -e 40 -c 0 -i 44 -a 0 -x {3.1 1.0 15 ------- null}
+ -t 0.22504 -s 2 -d 1 -p ack -e 40 -c 0 -i 44 -a 0 -x {3.1 1.0 15 ------- null}
- -t 0.22504 -s 2 -d 1 -p ack -e 40 -c 0 -i 44 -a 0 -x {3.1 1.0 15 ------- null}
h -t 0.22504 -s 2 -d 1 -p ack -e 40 -c 0 -i 44 -a 0 -x {3.1 1.0 -1 ------- null}
r -t 0.22568 -s 1 -d 2 -p tcp -e 1040 -c 0 -i 36 -a 0 -x {1.0 3.1 21 ------- null}
+ -t 0.22568 -s 2 -d 3 -p tcp -e 1040 -c 0 -i 36 -a 0 -x {1.0 3.1 21 ------- null}
- -t 0.22568 -s 2 -d 3 -p tcp -e 1040 -c 0 -i 36 -a 0 -x {1.0 3.1 21 ------- null}
h -t 0.22568 -s 2 -d 3 -p tcp -e 1040 -c 0 -i 36 -a 0 -x {1.0 3.1 -1 ------- null}
r -t 0.22736 -s 2 -d 3 -p tcp -e 1040 -c 0 -i 31 -a 0 -x {1.0 3.1 18 ------- null}
+ -t 0.22736 -s 3 -d 2 -p ack -e 40 -c 0 -i 49 -a 0 -x {3.1 1.0 18 ------- null}
- -t 0.22736 -s 3 -d 2 -p ack -e 40 -c 0 -i 49 -a 0 -x {3.1 1.0 18 ------- null}
h -t 0.22736 -s 3 -d 2 -p ack -e 40 -c 0 -i 49 -a 0 -x {3.1 1.0 -1 ------- null}
- -t 0.22816 -s 1 -d 2 -p tcp -e 1040 -c 0 -i 40 -a 0 -x {1.0 3.1 25 ------- null}
h -t 0.22816 -s 1 -d 2 -p tcp -e 1040 -c 0 -i 40 -a 0 -x {1.0 3.1 -1 ------- null}
r -t 0.2292 -s 3 -d 2 -p ack -e 40 -c 0 -i 47 -a 0 -x {3.1 1.0 16 ------- null}
+ -t 0.2292 -s 2 -d 1 -p ack -e 40 -c 0 -i 47 -a 0 -x {3.1 1.0 16 ------- null}
- -t 0.2292 -s 2 -d 1 -p ack -e 40 -c 0 -i 47 -a 0 -x {3.1 1.0 16 ------- null}
h -t 0.2292 -s 2 -d 1 -p ack -e 40 -c 0 -i 47 -a 0 -x {3.1 1.0 -1 ------- null}
r -t 0.22984 -s 1 -d 2 -p tcp -e 1040 -c 0 -i 37 -a 0 -x {1.0 3.1 22 ------- null}
+ -t 0.22984 -s 2 -d 3 -p tcp -e 1040 -c 0 -i 37 -a 0 -x {1.0 3.1 22 ------- null}
- -t 0.22984 -s 2 -d 3 -p tcp -e 1040 -c 0 -i 37 -a 0 -x {1.0 3.1 22 ------- null}
h -t 0.22984 -s 2 -d 3 -p tcp -e 1040 -c 0 -i 37 -a 0 -x {1.0 3.1 -1 ------- null}
r -t 0.23152 -s 2 -d 3 -p tcp -e 1040 -c 0 -i 33 -a 0 -x {1.0 3.1 19 ------- null}
+ -t 0.23152 -s 3 -d 2 -p ack -e 40 -c 0 -i 50 -a 0 -x {3.1 1.0 19 ------- null}
- -t 0.23152 -s 3 -d 2 -p ack -e 40 -c 0 -i 50 -a 0 -x {3.1 1.0 19 ------- null}
h -t 0.23152 -s 3 -d 2 -p ack -e 40 -c 0 -i 50 -a 0 -x {3.1 1.0 -1 ------- null}
- -t 0.23232 -s 1 -d 2 -p tcp -e 1040 -c 0 -i 41 -a 0 -x {1.0 3.1 26 ------- null}
h -t 0.23232 -s 1 -d 2 -p tcp -e 1040 -c 0 -i 41 -a 0 -x {1.0 3.1 -1 ------- null}
r -t 0.23336 -s 3 -d 2 -p ack -e 40 -c 0 -i 48 -a 0 -x {3.1 1.0 17 ------- null}
+ -t 0.23336 -s 2 -d 1 -p ack -e 40 -c 0 -i 48 -a 0 -x {3.1 1.0 17 ------- null}
- -t 0.23336 -s 2 -d 1 -p ack -e 40 -c 0 -i 48 -a 0 -x {3.1 1.0 17 ------- null}
h -t 0.23336 -s 2 -d 1 -p ack -e 40 -c 0 -i 48 -a 0 -x {3.1 1.0 -1 ------- null}
r -t 0.234 -s 1 -d 2 -p tcp -e 1040 -c 0 -i 38 -a 0 -x {1.0 3.1 23 ------- null}
+ -t 0.234 -s 2 -d 3 -p tcp -e 1040 -c 0 -i 38 -a 0 -x {1.0 3.1 23 ------- null}
- -t 0.234 -s 2 -d 3 -p tcp -e 1040 -c 0 -i 38 -a 0 -x {1.0 3.1 23 ------- null}
h -t 0.234 -s 2 -d 3 -p tcp -e 1040 -c 0 -i 38 -a 0 -x {1.0 3.1 -1 ------- null}
r -t 0.2352 -s 2 -d 1 -p ack -e 40 -c 0 -i 44 -a 0 -x {3.1 1.0 15 ------- null}
+ -t 0.2352 -s 1 -d 2 -p tcp -e 1040 -c 0 -i 51 -a 0 -x {1.0 3.1 31 ------- null}
+ -t 0.2352 -s 1 -d 2 -p tcp -e 1040 -c 0 -i 52 -a 0 -x {1.0 3.1 32 ------- null}
r -t 0.23568 -s 2 -d 3 -p tcp -e 1040 -c 0 -i 34 -a 0 -x {1.0 3.1 20 ------- null}
+ -t 0.23568 -s 3 -d 2 -p ack -e 40 -c 0 -i 53 -a 0 -x {3.1 1.0 20 ------- null}
- -t 0.23568 -s 3 -d 2 -p ack -e 40 -c 0 -i 53 -a 0 -x {3.1 1.0 20 ------- null}
h -t 0.23568 -s 3 -d 2 -p ack -e 40 -c 0 -i 53 -a 0 -x {3.1 1.0 -1 ------- null}
- -t 0.23648 -s 1 -d 2 -p tcp -e 1040 -c 0 -i 42 -a 0 -x {1.0 3.1 27 ------- null}
h -t 0.23648 -s 1 -d 2 -p tcp -e 1040 -c 0 -i 42 -a 0 -x {1.0 3.1 -1 ------- null}
r -t 0.23752 -s 3 -d 2 -p ack -e 40 -c 0 -i 49 -a 0 -x {3.1 1.0 18 ------- null}
+ -t 0.23752 -s 2 -d 1 -p ack -e 40 -c 0 -i 49 -a 0 -x {3.1 1.0 18 ------- null}
- -t 0.23752 -s 2 -d 1 -p ack -e 40 -c 0 -i 49 -a 0 -x {3.1 1.0 18 ------- null}
h -t 0.23752 -s 2 -d 1 -p ack -e 40 -c 0 -i 49 -a 0 -x {3.1 1.0 -1 ------- null}
r -t 0.23816 -s 1 -d 2 -p tcp -e 1040 -c 0 -i 39 -a 0 -x {1.0 3.1 24 ------- null}
+ -t 0.23816 -s 2 -d 3 -p tcp -e 1040 -c 0 -i 39 -a 0 -x {1.0 3.1 24 ------- null}