+ 0 1 2 tcp 40 ------- 0 1.0 3.1 0 0
- 0 1 2 tcp 40 ------- 0 1.0 3.1 0 0
r 0.01016 1 2 tcp 40 ------- 0 1.0 3.1 0 0
+ 0.01016 2 3 tcp 40 ------- 0 1.0 3.1 0 0
- 0.01016 2 3 tcp 40 ------- 0 1.0 3.1 0 0
r 0.02032 2 3 tcp 40 ------- 0 1.0 3.1 0 0
+ 0.02032 3 2 ack 40 ------- 0 3.1 1.0 0 1
- 0.02032 3 2 ack 40 ------- 0 3.1 1.0 0 1
r 0.03048 3 2 ack 40 ------- 0 3.1 1.0 0 1
+ 0.03048 2 1 ack 40 ------- 0 3.1 1.0 0 1
- 0.03048 2 1 ack 40 ------- 0 3.1 1.0 0 1
r 0.04064 2 1 ack 40 ------- 0 3.1 1.0 0 1
+ 0.04064 1 2 tcp 1040 ------- 0 1.0 3.1 1 2
- 0.04064 1 2 tcp 1040 ------- 0 1.0 3.1 1 2
+ 0.04064 1 2 tcp 1040 ------- 0 1.0 3.1 2 3
- 0.0448 1 2 tcp 1040 ------- 0 1.0 3.1 2 3
r 0.0548 1 2 tcp 1040 ------- 0 1.0 3.1 1 2
+ 0.0548 2 3 tcp 1040 ------- 0 1.0 3.1 1 2
- 0.0548 2 3 tcp 1040 ------- 0 1.0 3.1 1 2
r 0.05896 1 2 tcp 1040 ------- 0 1.0 3.1 2 3
+ 0.05896 2 3 tcp 1040 ------- 0 1.0 3.1 2 3
- 0.05896 2 3 tcp 1040 ------- 0 1.0 3.1 2 3
r 0.06896 2 3 tcp 1040 ------- 0 1.0 3.1 1 2
+ 0.06896 3 2 ack 40 ------- 0 3.1 1.0 1 4
- 0.06896 3 2 ack 40 ------- 0 3.1 1.0 1 4
r 0.07312 2 3 tcp 1040 ------- 0 1.0 3.1 2 3
+ 0.07312 3 2 ack 40 ------- 0 3.1 1.0 2 5
- 0.07312 3 2 ack 40 ------- 0 3.1 1.0 2 5
r 0.07912 3 2 ack 40 ------- 0 3.1 1.0 1 4
+ 0.07912 2 1 ack 40 ------- 0 3.1 1.0 1 4
- 0.07912 2 1 ack 40 ------- 0 3.1 1.0 1 4
r 0.08328 3 2 ack 40 ------- 0 3.1 1.0 2 5
+ 0.08328 2 1 ack 40 ------- 0 3.1 1.0 2 5
- 0.08328 2 1 ack 40 ------- 0 3.1 1.0 2 5
r 0.08928 2 1 ack 40 ------- 0 3.1 1.0 1 4
+ 0.08928 1 2 tcp 1040 ------- 0 1.0 3.1 3 6
- 0.08928 1 2 tcp 1040 ------- 0 1.0 3.1 3 6
+ 0.08928 1 2 tcp 1040 ------- 0 1.0 3.1 4 7
r 0.09344 2 1 ack 40 ------- 0 3.1 1.0 2 5
+ 0.09344 1 2 tcp 1040 ------- 0 1.0 3.1 5 8
+ 0.09344 1 2 tcp 1040 ------- 0 1.0 3.1 6 9
- 0.09344 1 2 tcp 1040 ------- 0 1.0 3.1 4 7
- 0.0976 1 2 tcp 1040 ------- 0 1.0 3.1 5 8
- 0.10176 1 2 tcp 1040 ------- 0 1.0 3.1 6 9
r 0.10344 1 2 tcp 1040 ------- 0 1.0 3.1 3 6
+ 0.10344 2 3 tcp 1040 ------- 0 1.0 3.1 3 6
- 0.10344 2 3 tcp 1040 ------- 0 1.0 3.1 3 6
r 0.1076 1 2 tcp 1040 ------- 0 1.0 3.1 4 7
+ 0.1076 2 3 tcp 1040 ------- 0 1.0 3.1 4 7
- 0.1076 2 3 tcp 1040 ------- 0 1.0 3.1 4 7
r 0.11176 1 2 tcp 1040 ------- 0 1.0 3.1 5 8
+ 0.11176 2 3 tcp 1040 ------- 0 1.0 3.1 5 8
- 0.11176 2 3 tcp 1040 ------- 0 1.0 3.1 5 8
r 0.11592 1 2 tcp 1040 ------- 0 1.0 3.1 6 9
+ 0.11592 2 3 tcp 1040 ------- 0 1.0 3.1 6 9
- 0.11592 2 3 tcp 1040 ------- 0 1.0 3.1 6 9
r 0.1176 2 3 tcp 1040 ------- 0 1.0 3.1 3 6
+ 0.1176 3 2 ack 40 ------- 0 3.1 1.0 3 10
- 0.1176 3 2 ack 40 ------- 0 3.1 1.0 3 10
r 0.12176 2 3 tcp 1040 ------- 0 1.0 3.1 4 7
+ 0.12176 3 2 ack 40 ------- 0 3.1 1.0 4 11
- 0.12176 3 2 ack 40 ------- 0 3.1 1.0 4 11
r 0.12592 2 3 tcp 1040 ------- 0 1.0 3.1 5 8
+ 0.12592 3 2 ack 40 ------- 0 3.1 1.0 5 12
- 0.12592 3 2 ack 40 ------- 0 3.1 1.0 5 12
r 0.12776 3 2 ack 40 ------- 0 3.1 1.0 3 10
+ 0.12776 2 1 ack 40 ------- 0 3.1 1.0 3 10
- 0.12776 2 1 ack 40 ------- 0 3.1 1.0 3 10
r 0.13008 2 3 tcp 1040 ------- 0 1.0 3.1 6 9
+ 0.13008 3 2 ack 40 ------- 0 3.1 1.0 6 13
- 0.13008 3 2 ack 40 ------- 0 3.1 1.0 6 13
r 0.13192 3 2 ack 40 ------- 0 3.1 1.0 4 11
+ 0.13192 2 1 ack 40 ------- 0 3.1 1.0 4 11
- 0.13192 2 1 ack 40 ------- 0 3.1 1.0 4 11
r 0.13608 3 2 ack 40 ------- 0 3.1 1.0 5 12
+ 0.13608 2 1 ack 40 ------- 0 3.1 1.0 5 12
- 0.13608 2 1 ack 40 ------- 0 3.1 1.0 5 12
r 0.13792 2 1 ack 40 ------- 0 3.1 1.0 3 10
+ 0.13792 1 2 tcp 1040 ------- 0 1.0 3.1 7 14
- 0.13792 1 2 tcp 1040 ------- 0 1.0 3.1 7 14
+ 0.13792 1 2 tcp 1040 ------- 0 1.0 3.1 8 15
r 0.14024 3 2 ack 40 ------- 0 3.1 1.0 6 13
+ 0.14024 2 1 ack 40 ------- 0 3.1 1.0 6 13
- 0.14024 2 1 ack 40 ------- 0 3.1 1.0 6 13
r 0.14208 2 1 ack 40 ------- 0 3.1 1.0 4 11
+ 0.14208 1 2 tcp 1040 ------- 0 1.0 3.1 9 16
+ 0.14208 1 2 tcp 1040 ------- 0 1.0 3.1 10 17
- 0.14208 1 2 tcp 1040 ------- 0 1.0 3.1 8 15
r 0.14624 2 1 ack 40 ------- 0 3.1 1.0 5 12
+ 0.14624 1 2 tcp 1040 ------- 0 1.0 3.1 11 18
+ 0.14624 1 2 tcp 1040 ------- 0 1.0 3.1 12 19
- 0.14624 1 2 tcp 1040 ------- 0 1.0 3.1 9 16
r 0.1504 2 1 ack 40 ------- 0 3.1 1.0 6 13
+ 0.1504 1 2 tcp 1040 ------- 0 1.0 3.1 13 20
+ 0.1504 1 2 tcp 1040 ------- 0 1.0 3.1 14 21
- 0.1504 1 2 tcp 1040 ------- 0 1.0 3.1 10 17
r 0.15208 1 2 tcp 1040 ------- 0 1.0 3.1 7 14
+ 0.15208 2 3 tcp 1040 ------- 0 1.0 3.1 7 14
- 0.15208 2 3 tcp 1040 ------- 0 1.0 3.1 7 14
- 0.15456 1 2 tcp 1040 ------- 0 1.0 3.1 11 18
r 0.15624 1 2 tcp 1040 ------- 0 1.0 3.1 8 15
+ 0.15624 2 3 tcp 1040 ------- 0 1.0 3.1 8 15
- 0.15624 2 3 tcp 1040 ------- 0 1.0 3.1 8 15
- 0.15872 1 2 tcp 1040 ------- 0 1.0 3.1 12 19
r 0.1604 1 2 tcp 1040 ------- 0 1.0 3.1 9 16
+ 0.1604 2 3 tcp 1040 ------- 0 1.0 3.1 9 16
- 0.1604 2 3 tcp 1040 ------- 0 1.0 3.1 9 16
- 0.16288 1 2 tcp 1040 ------- 0 1.0 3.1 13 20
r 0.16456 1 2 tcp 1040 ------- 0 1.0 3.1 10 17
+ 0.16456 2 3 tcp 1040 ------- 0 1.0 3.1 10 17
- 0.16456 2 3 tcp 1040 ------- 0 1.0 3.1 10 17
r 0.16624 2 3 tcp 1040 ------- 0 1.0 3.1 7 14
+ 0.16624 3 2 ack 40 ------- 0 3.1 1.0 7 22
- 0.16624 3 2 ack 40 ------- 0 3.1 1.0 7 22
- 0.16704 1 2 tcp 1040 ------- 0 1.0 3.1 14 21
r 0.16872 1 2 tcp 1040 ------- 0 1.0 3.1 11 18
+ 0.16872 2 3 tcp 1040 ------- 0 1.0 3.1 11 18
- 0.16872 2 3 tcp 1040 ------- 0 1.0 3.1 11 18
r 0.1704 2 3 tcp 1040 ------- 0 1.0 3.1 8 15
+ 0.1704 3 2 ack 40 ------- 0 3.1 1.0 8 23
- 0.1704 3 2 ack 40 ------- 0 3.1 1.0 8 23
r 0.17288 1 2 tcp 1040 ------- 0 1.0 3.1 12 19
+ 0.17288 2 3 tcp 1040 ------- 0 1.0 3.1 12 19
- 0.17288 2 3 tcp 1040 ------- 0 1.0 3.1 12 19
r 0.17456 2 3 tcp 1040 ------- 0 1.0 3.1 9 16
+ 0.17456 3 2 ack 40 ------- 0 3.1 1.0 9 24
- 0.17456 3 2 ack 40 ------- 0 3.1 1.0 9 24
r 0.1764 3 2 ack 40 ------- 0 3.1 1.0 7 22
+ 0.1764 2 1 ack 40 ------- 0 3.1 1.0 7 22
- 0.1764 2 1 ack 40 ------- 0 3.1 1.0 7 22
r 0.17704 1 2 tcp 1040 ------- 0 1.0 3.1 13 20
+ 0.17704 2 3 tcp 1040 ------- 0 1.0 3.1 13 20
- 0.17704 2 3 tcp 1040 ------- 0 1.0 3.1 13 20
r 0.17872 2 3 tcp 1040 ------- 0 1.0 3.1 10 17
+ 0.17872 3 2 ack 40 ------- 0 3.1 1.0 10 25
- 0.17872 3 2 ack 40 ------- 0 3.1 1.0 10 25
r 0.18056 3 2 ack 40 ------- 0 3.1 1.0 8 23
+ 0.18056 2 1 ack 40 ------- 0 3.1 1.0 8 23
- 0.18056 2 1 ack 40 ------- 0 3.1 1.0 8 23
r 0.1812 1 2 tcp 1040 ------- 0 1.0 3.1 14 21
+ 0.1812 2 3 tcp 1040 ------- 0 1.0 3.1 14 21
- 0.1812 2 3 tcp 1040 ------- 0 1.0 3.1 14 21
r 0.18288 2 3 tcp 1040 ------- 0 1.0 3.1 11 18
+ 0.18288 3 2 ack 40 ------- 0 3.1 1.0 11 26
- 0.18288 3 2 ack 40 ------- 0 3.1 1.0 11 26
r 0.18472 3 2 ack 40 ------- 0 3.1 1.0 9 24
+ 0.18472 2 1 ack 40 ------- 0 3.1 1.0 9 24
- 0.18472 2 1 ack 40 ------- 0 3.1 1.0 9 24
r 0.18656 2 1 ack 40 ------- 0 3.1 1.0 7 22
+ 0.18656 1 2 tcp 1040 ------- 0 1.0 3.1 15 27
- 0.18656 1 2 tcp 1040 ------- 0 1.0 3.1 15 27
+ 0.18656 1 2 tcp 1040 ------- 0 1.0 3.1 16 28
r 0.18704 2 3 tcp 1040 ------- 0 1.0 3.1 12 19
+ 0.18704 3 2 ack 40 ------- 0 3.1 1.0 12 29
- 0.18704 3 2 ack 40 ------- 0 3.1 1.0 12 29
r 0.18888 3 2 ack 40 ------- 0 3.1 1.0 10 25
+ 0.18888 2 1 ack 40 ------- 0 3.1 1.0 10 25
- 0.18888 2 1 ack 40 ------- 0 3.1 1.0 10 25
r 0.19072 2 1 ack 40 ------- 0 3.1 1.0 8 23
+ 0.19072 1 2 tcp 1040 ------- 0 1.0 3.1 17 30
+ 0.19072 1 2 tcp 1040 ------- 0 1.0 3.1 18 31
- 0.19072 1 2 tcp 1040 ------- 0 1.0 3.1 16 28
r 0.1912 2 3 tcp 1040 ------- 0 1.0 3.1 13 20
+ 0.1912 3 2 ack 40 ------- 0 3.1 1.0 13 32
- 0.1912 3 2 ack 40 ------- 0 3.1 1.0 13 32
r 0.19304 3 2 ack 40 ------- 0 3.1 1.0 11 26
+ 0.19304 2 1 ack 40 ------- 0 3.1 1.0 11 26
- 0.19304 2 1 ack 40 ------- 0 3.1 1.0 11 26
r 0.19488 2 1 ack 40 ------- 0 3.1 1.0 9 24
+ 0.19488 1 2 tcp 1040 ------- 0 1.0 3.1 19 33
+ 0.19488 1 2 tcp 1040 ------- 0 1.0 3.1 20 34
- 0.19488 1 2 tcp 1040 ------- 0 1.0 3.1 17 30
r 0.19536 2 3 tcp 1040 ------- 0 1.0 3.1 14 21
+ 0.19536 3 2 ack 40 ------- 0 3.1 1.0 14 35
- 0.19536 3 2 ack 40 ------- 0 3.1 1.0 14 35
r 0.1972 3 2 ack 40 ------- 0 3.1 1.0 12 29
+ 0.1972 2 1 ack 40 ------- 0 3.1 1.0 12 29
- 0.1972 2 1 ack 40 ------- 0 3.1 1.0 12 29
r 0.19904 2 1 ack 40 ------- 0 3.1 1.0 10 25
+ 0.19904 1 2 tcp 1040 ------- 0 1.0 3.1 21 36
+ 0.19904 1 2 tcp 1040 ------- 0 1.0 3.1 22 37
- 0.19904 1 2 tcp 1040 ------- 0 1.0 3.1 18 31
r 0.20072 1 2 tcp 1040 ------- 0 1.0 3.1 15 27
+ 0.20072 2 3 tcp 1040 ------- 0 1.0 3.1 15 27
- 0.20072 2 3 tcp 1040 ------- 0 1.0 3.1 15 27
r 0.20136 3 2 ack 40 ------- 0 3.1 1.0 13 32
+ 0.20136 2 1 ack 40 ------- 0 3.1 1.0 13 32
- 0.20136 2 1 ack 40 ------- 0 3.1 1.0 13 32
r 0.2032 2 1 ack 40 ------- 0 3.1 1.0 11 26
+ 0.2032 1 2 tcp 1040 ------- 0 1.0 3.1 23 38
+ 0.2032 1 2 tcp 1040 ------- 0 1.0 3.1 24 39
- 0.2032 1 2 tcp 1040 ------- 0 1.0 3.1 19 33
r 0.20488 1 2 tcp 1040 ------- 0 1.0 3.1 16 28
+ 0.20488 2 3 tcp 1040 ------- 0 1.0 3.1 16 28
- 0.20488 2 3 tcp 1040 ------- 0 1.0 3.1 16 28
r 0.20552 3 2 ack 40 ------- 0 3.1 1.0 14 35
+ 0.20552 2 1 ack 40 ------- 0 3.1 1.0 14 35
- 0.20552 2 1 ack 40 ------- 0 3.1 1.0 14 35
r 0.20736 2 1 ack 40 ------- 0 3.1 1.0 12 29
+ 0.20736 1 2 tcp 1040 ------- 0 1.0 3.1 25 40
+ 0.20736 1 2 tcp 1040 ------- 0 1.0 3.1 26 41
- 0.20736 1 2 tcp 1040 ------- 0 1.0 3.1 20 34
r 0.20904 1 2 tcp 1040 ------- 0 1.0 3.1 17 30
+ 0.20904 2 3 tcp 1040 ------- 0 1.0 3.1 17 30
- 0.20904 2 3 tcp 1040 ------- 0 1.0 3.1 17 30
r 0.21152 2 1 ack 40 ------- 0 3.1 1.0 13 32
+ 0.21152 1 2 tcp 1040 ------- 0 1.0 3.1 27 42
+ 0.21152 1 2 tcp 1040 ------- 0 1.0 3.1 28 43
- 0.21152 1 2 tcp 1040 ------- 0 1.0 3.1 21 36
r 0.2132 1 2 tcp 1040 ------- 0 1.0 3.1 18 31
+ 0.2132 2 3 tcp 1040 ------- 0 1.0 3.1 18 31
- 0.2132 2 3 tcp 1040 ------- 0 1.0 3.1 18 31
r 0.21488 2 3 tcp 1040 ------- 0 1.0 3.1 15 27
+ 0.21488 3 2 ack 40 ------- 0 3.1 1.0 15 44
- 0.21488 3 2 ack 40 ------- 0 3.1 1.0 15 44
r 0.21568 2 1 ack 40 ------- 0 3.1 1.0 14 35
+ 0.21568 1 2 tcp 1040 ------- 0 1.0 3.1 29 45
+ 0.21568 1 2 tcp 1040 ------- 0 1.0 3.1 30 46
- 0.21568 1 2 tcp 1040 ------- 0 1.0 3.1 22 37
r 0.21736 1 2 tcp 1040 ------- 0 1.0 3.1 19 33
+ 0.21736 2 3 tcp 1040 ------- 0 1.0 3.1 19 33
- 0.21736 2 3 tcp 1040 ------- 0 1.0 3.1 19 33
r 0.21904 2 3 tcp 1040 ------- 0 1.0 3.1 16 28
+ 0.21904 3 2 ack 40 ------- 0 3.1 1.0 16 47
- 0.21904 3 2 ack 40 ------- 0 3.1 1.0 16 47
- 0.21984 1 2 tcp 1040 ------- 0 1.0 3.1 23 38
r 0.22152 1 2 tcp 1040 ------- 0 1.0 3.1 20 34
+ 0.22152 2 3 tcp 1040 ------- 0 1.0 3.1 20 34
- 0.22152 2 3 tcp 1040 ------- 0 1.0 3.1 20 34
r 0.2232 2 3 tcp 1040 ------- 0 1.0 3.1 17 30
+ 0.2232 3 2 ack 40 ------- 0 3.1 1.0 17 48
- 0.2232 3 2 ack 40 ------- 0 3.1 1.0 17 48
- 0.224 1 2 tcp 1040 ------- 0 1.0 3.1 24 39
r 0.22504 3 2 ack 40 ------- 0 3.1 1.0 15 44
+ 0.22504 2 1 ack 40 ------- 0 3.1 1.0 15 44
- 0.22504 2 1 ack 40 ------- 0 3.1 1.0 15 44
r 0.22568 1 2 tcp 1040 ------- 0 1.0 3.1 21 36
+ 0.22568 2 3 tcp 1040 ------- 0 1.0 3.1 21 36
- 0.22568 2 3 tcp 1040 ------- 0 1.0 3.1 21 36
r 0.22736 2 3 tcp 1040 ------- 0 1.0 3.1 18 31
+ 0.22736 3 2 ack 40 ------- 0 3.1 1.0 18 49
- 0.22736 3 2 ack 40 ------- 0 3.1 1.0 18 49
- 0.22816 1 2 tcp 1040 ------- 0 1.0 3.1 25 40
r 0.2292 3 2 ack 40 ------- 0 3.1 1.0 16 47
+ 0.2292 2 1 ack 40 ------- 0 3.1 1.0 16 47
- 0.2292 2 1 ack 40 ------- 0 3.1 1.0 16 47
r 0.22984 1 2 tcp 1040 ------- 0 1.0 3.1 22 37
+ 0.22984 2 3 tcp 1040 ------- 0 1.0 3.1 22 37
- 0.22984 2 3 tcp 1040 ------- 0 1.0 3.1 22 37
r 0.23152 2 3 tcp 1040 ------- 0 1.0 3.1 19 33
+ 0.23152 3 2 ack 40 ------- 0 3.1 1.0 19 50
- 0.23152 3 2 ack 40 ------- 0 3.1 1.0 19 50
- 0.23232 1 2 tcp 1040 ------- 0 1.0 3.1 26 41
r 0.23336 3 2 ack 40 ------- 0 3.1 1.0 17 48
+ 0.23336 2 1 ack 40 ------- 0 3.1 1.0 17 48
- 0.23336 2 1 ack 40 ------- 0 3.1 1.0 17 48
r 0.234 1 2 tcp 1040 ------- 0 1.0 3.1 23 38
+ 0.234 2 3 tcp 1040 ------- 0 1.0 3.1 23 38
- 0.234 2 3 tcp 1040 ------- 0 1.0 3.1 23 38
r 0.2352 2 1 ack 40 ------- 0 3.1 1.0 15 44
+ 0.2352 1 2 tcp 1040 ------- 0 1.0 3.1 31 51
+ 0.2352 1 2 tcp 1040 ------- 0 1.0 3.1 32 52
r 0.23568 2 3 tcp 1040 ------- 0 1.0 3.1 20 34
+ 0.23568 3 2 ack 40 ------- 0 3.1 1.0 20 53
- 0.23568 3 2 ack 40 ------- 0 3.1 1.0 20 53
- 0.23648 1 2 tcp 1040 ------- 0 1.0 3.1 27 42
r 0.23752 3 2 ack 40 ------- 0 3.1 1.0 18 49
+ 0.23752 2 1 ack 40 ------- 0 3.1 1.0 18 49
- 0.23752 2 1 ack 40 ------- 0 3.1 1.0 18 49
r 0.23816 1 2 tcp 1040 ------- 0 1.0 3.1 24 39
+ 0.23816 2 3 tcp 1040 ------- 0 1.0 3.1 24 39
- 0.23816 2 3 tcp 1040 ------- 0 1.0 3.1 24 39
r 0.23936 2 1 ack 40 ------- 0 3.1 1.0 16 47
+ 0.23936 1 2 tcp 1040 ------- 0 1.0 3.1 33 54
+ 0.23936 1 2 tcp 1040 ------- 0 1.0 3.1 34 55
r 0.23984 2 3 tcp 1040 ------- 0 1.0 3.1 21 36
+ 0.23984 3 2 ack 40 ------- 0 3.1 1.0 21 56
- 0.23984 3 2 ack 40 ------- 0 3.1 1.0 21 56
- 0.24064 1 2 tcp 1040 ------- 0 1.0 3.1 28 43
r 0.24168 3 2 ack 40 ------- 0 3.1 1.0 19 50
+ 0.24168 2 1 ack 40 ------- 0 3.1 1.0 19 50
- 0.24168 2 1 ack 40 ------- 0 3.1 1.0 19 50
r 0.24232 1 2 tcp 1040 ------- 0 1.0 3.1 25 40
+ 0.24232 2 3 tcp 1040 ------- 0 1.0 3.1 25 40
- 0.24232 2 3 tcp 1040 ------- 0 1.0 3.1 25 40
r 0.24352 2 1 ack 40 ------- 0 3.1 1.0 17 48
+ 0.24352 1 2 tcp 1040 ------- 0 1.0 3.1 35 57
+ 0.24352 1 2 tcp 1040 ------- 0 1.0 3.1 36 58
r 0.244 2 3 tcp 1040 ------- 0 1.0 3.1 22 37
+ 0.244 3 2 ack 40 ------- 0 3.1 1.0 22 59
- 0.244 3 2 ack 40 ------- 0 3.1 1.0 22 59
- 0.2448 1 2 tcp 1040 ------- 0 1.0 3.1 29 45
r 0.24584 3 2 ack 40 ------- 0 3.1 1.0 20 53
+ 0.24584 2 1 ack 40 ------- 0 3.1 1.0 20 53
- 0.24584 2 1 ack 40 ------- 0 3.1 1.0 20 53
r 0.24648 1 2 tcp 1040 ------- 0 1.0 3.1 26 41
+ 0.24648 2 3 tcp 1040 ------- 0 1.0 3.1 26 41
- 0.24648 2 3 tcp 1040 ------- 0 1.0 3.1 26 41
r 0.24768 2 1 ack 40 ------- 0 3.1 1.0 18 49
+ 0.24768 1 2 tcp 1040 ------- 0 1.0 3.1 37 60
+ 0.24768 1 2 tcp 1040 ------- 0 1.0 3.1 38 61
r 0.24816 2 3 tcp 1040 ------- 0 1.0 3.1 23 38
+ 0.24816 3 2 ack 40 ------- 0 3.1 1.0 23 62
- 0.24816 3 2 ack 40 ------- 0 3.1 1.0 23 62
- 0.24896 1 2 tcp 1040 ------- 0 1.0 3.1 30 46
r 0.25 3 2 ack 40 ------- 0 3.1 1.0 21 56
+ 0.25 2 1 ack 40 ------- 0 3.1 1.0 21 56
- 0.25 2 1 ack 40 ------- 0 3.1 1.0 21 56
r 0.25064 1 2 tcp 1040 ------- 0 1.0 3.1 27 42
+ 0.25064 2 3 tcp 1040 ------- 0 1.0 3.1 27 42
- 0.25064 2 3 tcp 1040 ------- 0 1.0 3.1 27 42
r 0.25184 2 1 ack 40 ------- 0 3.1 1.0 19 50
+ 0.25184 1 2 tcp 1040 ------- 0 1.0 3.1 39 63
r 0.25232 2 3 tcp 1040 ------- 0 1.0 3.1 24 39
+ 0.25232 3 2 ack 40 ------- 0 3.1 1.0 24 64
- 0.25232 3 2 ack 40 ------- 0 3.1 1.0 24 64
- 0.25312 1 2 tcp 1040 ------- 0 1.0 3.1 31 51
r 0.25416 3 2 ack 40 ------- 0 3.1 1.0 22 59
+ 0.25416 2 1 ack 40 ------- 0 3.1 1.0 22 59
- 0.25416 2 1 ack 40 ------- 0 3.1 1.0 22 59
r 0.2548 1 2 tcp 1040 ------- 0 1.0 3.1 28 43
+ 0.2548 2 3 tcp 1040 ------- 0 1.0 3.1 28 43
- 0.2548 2 3 tcp 1040 ------- 0 1.0 3.1 28 43
r 0.256 2 1 ack 40 ------- 0 3.1 1.0 20 53
+ 0.256 1 2 tcp 1040 ------- 0 1.0 3.1 40 65
r 0.25648 2 3 tcp 1040 ------- 0 1.0 3.1 25 40
+ 0.25648 3 2 ack 40 ------- 0 3.1 1.0 25 66
- 0.25648 3 2 ack 40 ------- 0 3.1 1.0 25 66
- 0.25728 1 2 tcp 1040 ------- 0 1.0 3.1 32 52
r 0.25832 3 2 ack 40 ------- 0 3.1 1.0 23 62
+ 0.25832 2 1 ack 40 ------- 0 3.1 1.0 23 62
- 0.25832 2 1 ack 40 ------- 0 3.1 1.0 23 62
r 0.25896 1 2 tcp 1040 ------- 0 1.0 3.1 29 45
+ 0.25896 2 3 tcp 1040 ------- 0 1.0 3.1 29 45
- 0.25896 2 3 tcp 1040 ------- 0 1.0 3.1 29 45
r 0.26016 2 1 ack 40 ------- 0 3.1 1.0 21 56
+ 0.26016 1 2 tcp 1040 ------- 0 1.0 3.1 41 67
r 0.26064 2 3 tcp 1040 ------- 0 1.0 3.1 26 41
+ 0.26064 3 2 ack 40 ------- 0 3.1 1.0 26 68
- 0.26064 3 2 ack 40 ------- 0 3.1 1.0 26 68
- 0.26144 1 2 tcp 1040 ------- 0 1.0 3.1 33 54
r 0.26248 3 2 ack 40 ------- 0 3.1 1.0 24 64
+ 0.26248 2 1 ack 40 ------- 0 3.1 1.0 24 64
- 0.26248 2 1 ack 40 ------- 0 3.1 1.0 24 64
r 0.26312 1 2 tcp 1040 ------- 0 1.0 3.1 30 46
+ 0.26312 2 3 tcp 1040 ------- 0 1.0 3.1 30 46
- 0.26312 2 3 tcp 1040 ------- 0 1.0 3.1 30 46
r 0.26432 2 1 ack 40 ------- 0 3.1 1.0 22 59
+ 0.26432 1 2 tcp 1040 ------- 0 1.0 3.1 42 69
r 0.2648 2 3 tcp 1040 ------- 0 1.0 3.1 27 42
+ 0.2648 3 2 ack 40 ------- 0 3.1 1.0 27 70
- 0.2648 3 2 ack 40 ------- 0 3.1 1.0 27 70
- 0.2656 1 2 tcp 1040 ------- 0 1.0 3.1 34 55
r 0.26664 3 2 ack 40 ------- 0 3.1 1.0 25 66
+ 0.26664 2 1 ack 40 ------- 0 3.1 1.0 25 66
- 0.26664 2 1 ack 40 ------- 0 3.1 1.0 25 66
r 0.26728 1 2 tcp 1040 ------- 0 1.0 3.1 31 51
+ 0.26728 2 3 tcp 1040 ------- 0 1.0 3.1 31 51
- 0.26728 2 3 tcp 1040 ------- 0 1.0 3.1 31 51
r 0.26848 2 1 ack 40 ------- 0 3.1 1.0 23 62
+ 0.26848 1 2 tcp 1040 ------- 0 1.0 3.1 43 71
r 0.26896 2 3 tcp 1040 ------- 0 1.0 3.1 28 43
+ 0.26896 3 2 ack 40 ------- 0 3.1 1.0 28 72
- 0.26896 3 2 ack 40 ------- 0 3.1 1.0 28 72
- 0.26976 1 2 tcp 1040 ------- 0 1.0 3.1 35 57
r 0.2708 3 2 ack 40 ------- 0 3.1 1.0 26 68
+ 0.2708 2 1 ack 40 ------- 0 3.1 1.0 26 68
- 0.2708 2 1 ack 40 ------- 0 3.1 1.0 26 68
r 0.27144 1 2 tcp 1040 ------- 0 1.0 3.1 32 52
+ 0.27144 2 3 tcp 1040 ------- 0 1.0 3.1 32 52
- 0.27144 2 3 tcp 1040 ------- 0 1.0 3.1 32 52
r 0.27264 2 1 ack 40 ------- 0 3.1 1.0 24 64
+ 0.27264 1 2 tcp 1040 ------- 0 1.0 3.1 44 73
r 0.27312 2 3 tcp 1040 ------- 0 1.0 3.1 29 45
+ 0.27312 3 2 ack 40 ------- 0 3.1 1.0 29 74
- 0.27312 3 2 ack 40 ------- 0 3.1 1.0 29 74
- 0.27392 1 2 tcp 1040 ------- 0 1.0 3.1 36 58
r 0.27496 3 2 ack 40 ------- 0 3.1 1.0 27 70
+ 0.27496 2 1 ack 40 ------- 0 3.1 1.0 27 70
- 0.27496 2 1 ack 40 ------- 0 3.1 1.0 27 70
r 0.2756 1 2 tcp 1040 ------- 0 1.0 3.1 33 54
+ 0.2756 2 3 tcp 1040 ------- 0 1.0 3.1 33 54
- 0.2756 2 3 tcp 1040 ------- 0 1.0 3.1 33 54
r 0.2768 2 1 ack 40 ------- 0 3.1 1.0 25 66
+ 0.2768 1 2 tcp 1040 ------- 0 1.0 3.1 45 75
r 0.27728 2 3 tcp 1040 ------- 0 1.0 3.1 30 46
+ 0.27728 3 2 ack 40 ------- 0 3.1 1.0 30 76
- 0.27728 3 2 ack 40 ------- 0 3.1 1.0 30 76
- 0.27808 1 2 tcp 1040 ------- 0 1.0 3.1 37 60
r 0.27912 3 2 ack 40 ------- 0 3.1 1.0 28 72
+ 0.27912 2 1 ack 40 ------- 0 3.1 1.0 28 72
- 0.27912 2 1 ack 40 ------- 0 3.1 1.0 28 72
r 0.27976 1 2 tcp 1040 ------- 0 1.0 3.1 34 55
+ 0.27976 2 3 tcp 1040 ------- 0 1.0 3.1 34 55
- 0.27976 2 3 tcp 1040 ------- 0 1.0 3.1 34 55
r 0.28096 2 1 ack 40 ------- 0 3.1 1.0 26 68
+ 0.28096 1 2 tcp 1040 ------- 0 1.0 3.1 46 77
r 0.28144 2 3 tcp 1040 ------- 0 1.0 3.1 31 51
+ 0.28144 3 2 ack 40 ------- 0 3.1 1.0 31 78
- 0.28144 3 2 ack 40 ------- 0 3.1 1.0 31 78
- 0.28224 1 2 tcp 1040 ------- 0 1.0 3.1 38 61
r 0.28328 3 2 ack 40 ------- 0 3.1 1.0 29 74
+ 0.28328 2 1 ack 40 ------- 0 3.1 1.0 29 74
- 0.28328 2 1 ack 40 ------- 0 3.1 1.0 29 74
r 0.28392 1 2 tcp 1040 ------- 0 1.0 3.1 35 57
+ 0.28392 2 3 tcp 1040 ------- 0 1.0 3.1 35 57
- 0.28392 2 3 tcp 1040 ------- 0 1.0 3.1 35 57
r 0.28512 2 1 ack 40 ------- 0 3.1 1.0 27 70
+ 0.28512 1 2 tcp 1040 ------- 0 1.0 3.1 47 79
r 0.2856 2 3 tcp 1040 ------- 0 1.0 3.1 32 52
+ 0.2856 3 2 ack 40 ------- 0 3.1 1.0 32 80
- 0.2856 3 2 ack 40 ------- 0 3.1 1.0 32 80
- 0.2864 1 2 tcp 1040 ------- 0 1.0 3.1 39 63
r 0.28744 3 2 ack 40 ------- 0 3.1 1.0 30 76
+ 0.28744 2 1 ack 40 ------- 0 3.1 1.0 30 76
- 0.28744 2 1 ack 40 ------- 0 3.1 1.0 30 76
r 0.28808 1 2 tcp 1040 ------- 0 1.0 3.1 36 58
+ 0.28808 2 3 tcp 1040 ------- 0 1.0 3.1 36 58
- 0.28808 2 3 tcp 1040 ------- 0 1.0 3.1 36 58
r 0.28928 2 1 ack 40 ------- 0 3.1 1.0 28 72
+ 0.28928 1 2 tcp 1040 ------- 0 1.0 3.1 48 81
r 0.28976 2 3 tcp 1040 ------- 0 1.0 3.1 33 54
+ 0.28976 3 2 ack 40 ------- 0 3.1 1.0 33 82
- 0.28976 3 2 ack 40 ------- 0 3.1 1.0 33 82
- 0.29056 1 2 tcp 1040 ------- 0 1.0 3.1 40 65
r 0.2916 3 2 ack 40 ------- 0 3.1 1.0 31 78
+ 0.2916 2 1 ack 40 ------- 0 3.1 1.0 31 78
- 0.2916 2 1 ack 40 ------- 0 3.1 1.0 31 78
r 0.29224 1 2 tcp 1040 ------- 0 1.0 3.1 37 60
+ 0.29224 2 3 tcp 1040 ------- 0 1.0 3.1 37 60
- 0.29224 2 3 tcp 1040 ------- 0 1.0 3.1 37 60
r 0.29344 2 1 ack 40 ------- 0 3.1 1.0 29 74
+ 0.29344 1 2 tcp 1040 ------- 0 1.0 3.1 49 83
r 0.29392 2 3 tcp 1040 ------- 0 1.0 3.1 34 55
+ 0.29392 3 2 ack 40 ------- 0 3.1 1.0 34 84
- 0.29392 3 2 ack 40 ------- 0 3.1 1.0 34 84
- 0.29472 1 2 tcp 1040 ------- 0 1.0 3.1 41 67
r 0.29576 3 2 ack 40 ------- 0 3.1 1.0 32 80
+ 0.29576 2 1 ack 40 ------- 0 3.1 1.0 32 80
- 0.29576 2 1 ack 40 ------- 0 3.1 1.0 32 80
r 0.2964 1 2 tcp 1040 ------- 0 1.0 3.1 38 61
+ 0.2964 2 3 tcp 1040 ------- 0 1.0 3.1 38 61
- 0.2964 2 3 tcp 1040 ------- 0 1.0 3.1 38 61
r 0.2976 2 1 ack 40 ------- 0 3.1 1.0 30 76
+ 0.2976 1 2 tcp 1040 ------- 0 1.0 3.1 50 85
r 0.29808 2 3 tcp 1040 ------- 0 1.0 3.1 35 57
+ 0.29808 3 2 ack 40 ------- 0 3.1 1.0 35 86
- 0.29808 3 2 ack 40 ------- 0 3.1 1.0 35 86
- 0.29888 1 2 tcp 1040 ------- 0 1.0 3.1 42 69
r 0.29992 3 2 ack 40 ------- 0 3.1 1.0 33 82
+ 0.29992 2 1 ack 40 ------- 0 3.1 1.0 33 82
- 0.29992 2 1 ack 40 ------- 0 3.1 1.0 33 82
r 0.30056 1 2 tcp 1040 ------- 0 1.0 3.1 39 63
+ 0.30056 2 3 tcp 1040 ------- 0 1.0 3.1 39 63
- 0.30056 2 3 tcp 1040 ------- 0 1.0 3.1 39 63
r 0.30176 2 1 ack 40 ------- 0 3.1 1.0 31 78
+ 0.30176 1 2 tcp 1040 ------- 0 1.0 3.1 51 87
r 0.30224 2 3 tcp 1040 ------- 0 1.0 3.1 36 58
+ 0.30224 3 2 ack 40 ------- 0 3.1 1.0 36 88
- 0.30224 3 2 ack 40 ------- 0 3.1 1.0 36 88
- 0.30304 1 2 tcp 1040 ------- 0 1.0 3.1 43 71
r 0.30408 3 2 ack 40 ------- 0 3.1 1.0 34 84
+ 0.30408 2 1 ack 40 ------- 0 3.1 1.0 34 84
- 0.30408 2 1 ack 40 ------- 0 3.1 1.0 34 84
r 0.30472 1 2 tcp 1040 ------- 0 1.0 3.1 40 65
+ 0.30472 2 3 tcp 1040 ------- 0 1.0 3.1 40 65
- 0.30472 2 3 tcp 1040 ------- 0 1.0 3.1 40 65
r 0.30592 2 1 ack 40 ------- 0 3.1 1.0 32 80
+ 0.30592 1 2 tcp 1040 ------- 0 1.0 3.1 52 89
r 0.3064 2 3 tcp 1040 ------- 0 1.0 3.1 37 60
+ 0.3064 3 2 ack 40 ------- 0 3.1 1.0 37 90
- 0.3064 3 2 ack 40 ------- 0 3.1 1.0 37 90
- 0.3072 1 2 tcp 1040 ------- 0 1.0 3.1 44 73
r 0.30824 3 2 ack 40 ------- 0 3.1 1.0 35 86
+ 0.30824 2 1 ack 40 ------- 0 3.1 1.0 35 86
- 0.30824 2 1 ack 40 ------- 0 3.1 1.0 35 86
r 0.30888 1 2 tcp 1040 ------- 0 1.0 3.1 41 67
+ 0.30888 2 3 tcp 1040 ------- 0 1.0 3.1 41 67
- 0.30888 2 3 tcp 1040 ------- 0 1.0 3.1 41 67
r 0.31008 2 1 ack 40 ------- 0 3.1 1.0 33 82
+ 0.31008 1 2 tcp 1040 ------- 0 1.0 3.1 53 91
r 0.31056 2 3 tcp 1040 ------- 0 1.0 3.1 38 61
+ 0.31056 3 2 ack 40 ------- 0 3.1 1.0 38 92
- 0.31056 3 2 ack 40 ------- 0 3.1 1.0 38 92
- 0.31136 1 2 tcp 1040 ------- 0 1.0 3.1 45 75
r 0.3124 3 2 ack 40 ------- 0 3.1 1.0 36 88
+ 0.3124 2 1 ack 40 ------- 0 3.1 1.0 36 88
- 0.3124 2 1 ack 40 ------- 0 3.1 1.0 36 88
r 0.31304 1 2 tcp 1040 ------- 0 1.0 3.1 42 69
+ 0.31304 2 3 tcp 1040 ------- 0 1.0 3.1 42 69
- 0.31304 2 3 tcp 1040 ------- 0 1.0 3.1 42 69
r 0.31424 2 1 ack 40 ------- 0 3.1 1.0 34 84
+ 0.31424 1 2 tcp 1040 ------- 0 1.0 3.1 54 93
r 0.31472 2 3 tcp 1040 ------- 0 1.0 3.1 39 63
+ 0.31472 3 2 ack 40 ------- 0 3.1 1.0 39 94
- 0.31472 3 2 ack 40 ------- 0 3.1 1.0 39 94
- 0.31552 1 2 tcp 1040 ------- 0 1.0 3.1 46 77
r 0.31656 3 2 ack 40 ------- 0 3.1 1.0 37 90
+ 0.31656 2 1 ack 40 ------- 0 3.1 1.0 37 90
- 0.31656 2 1 ack 40 ------- 0 3.1 1.0 37 90
r 0.3172 1 2 tcp 1040 ------- 0 1.0 3.1 43 71
+ 0.3172 2 3 tcp 1040 ------- 0 1.0 3.1 43 71
- 0.3172 2 3 tcp 1040 ------- 0 1.0 3.1 43 71
r 0.3184 2 1 ack 40 ------- 0 3.1 1.0 35 86
+ 0.3184 1 2 tcp 1040 ------- 0 1.0 3.1 55 95
r 0.31888 2 3 tcp 1040 ------- 0 1.0 3.1 40 65
+ 0.31888 3 2 ack 40 ------- 0 3.1 1.0 40 96
- 0.31888 3 2 ack 40 ------- 0 3.1 1.0 40 96
- 0.31968 1 2 tcp 1040 ------- 0 1.0 3.1 47 79
r 0.32072 3 2 ack 40 ------- 0 3.1 1.0 38 92
+ 0.32072 2 1 ack 40 ------- 0 3.1 1.0 38 92
- 0.32072 2 1 ack 40 ------- 0 3.1 1.0 38 92
r 0.32136 1 2 tcp 1040 ------- 0 1.0 3.1 44 73
+ 0.32136 2 3 tcp 1040 ------- 0 1.0 3.1 44 73
- 0.32136 2 3 tcp 1040 ------- 0 1.0 3.1 44 73
r 0.32256 2 1 ack 40 ------- 0 3.1 1.0 36 88
+ 0.32256 1 2 tcp 1040 ------- 0 1.0 3.1 56 97
r 0.32304 2 3 tcp 1040 ------- 0 1.0 3.1 41 67
+ 0.32304 3 2 ack 40 ------- 0 3.1 1.0 41 98
- 0.32304 3 2 ack 40 ------- 0 3.1 1.0 41 98
- 0.32384 1 2 tcp 1040 ------- 0 1.0 3.1 48 81
r 0.32488 3 2 ack 40 ------- 0 3.1 1.0 39 94
+ 0.32488 2 1 ack 40 ------- 0 3.1 1.0 39 94
- 0.32488 2 1 ack 40 ------- 0 3.1 1.0 39 94
r 0.32552 1 2 tcp 1040 ------- 0 1.0 3.1 45 75
+ 0.32552 2 3 tcp 1040 ------- 0 1.0 3.1 45 75
- 0.32552 2 3 tcp 1040 ------- 0 1.0 3.1 45 75
r 0.32672 2 1 ack 40 ------- 0 3.1 1.0 37 90
+ 0.32672 1 2 tcp 1040 ------- 0 1.0 3.1 57 99
r 0.3272 2 3 tcp 1040 ------- 0 1.0 3.1 42 69
+ 0.3272 3 2 ack 40 ------- 0 3.1 1.0 42 100
- 0.3272 3 2 ack 40 ------- 0 3.1 1.0 42 100
- 0.328 1 2 tcp 1040 ------- 0 1.0 3.1 49 83
r 0.32904 3 2 ack 40 ------- 0 3.1 1.0 40 96
+ 0.32904 2 1 ack 40 ------- 0 3.1 1.0 40 96
- 0.32904 2 1 ack 40 ------- 0 3.1 1.0 40 96
r 0.32968 1 2 tcp 1040 ------- 0 1.0 3.1 46 77
+ 0.32968 2 3 tcp 1040 ------- 0 1.0 3.1 46 77
- 0.32968 2 3 tcp 1040 ------- 0 1.0 3.1 46 77
r 0.33088 2 1 ack 40 ------- 0 3.1 1.0 38 92
+ 0.33088 1 2 tcp 1040 ------- 0 1.0 3.1 58 101
r 0.33136 2 3 tcp 1040 ------- 0 1.0 3.1 43 71
+ 0.33136 3 2 ack 40 ------- 0 3.1 1.0 43 102
- 0.33136 3 2 ack 40 ------- 0 3.1 1.0 43 102
- 0.33216 1 2 tcp 1040 ------- 0 1.0 3.1 50 85
r 0.3332 3 2 ack 40 ------- 0 3.1 1.0 41 98
+ 0.3332 2 1 ack 40 ------- 0 3.1 1.0 41 98
- 0.3332 2 1 ack 40 ------- 0 3.1 1.0 41 98
r 0.33384 1 2 tcp 1040 ------- 0 1.0 3.1 47 79
+ 0.33384 2 3 tcp 1040 ------- 0 1.0 3.1 47 79
- 0.33384 2 3 tcp 1040 ------- 0 1.0 3.1 47 79
r 0.33504 2 1 ack 40 ------- 0 3.1 1.0 39 94
+ 0.33504 1 2 tcp 1040 ------- 0 1.0 3.1 59 103
r 0.33552 2 3 tcp 1040 ------- 0 1.0 3.1 44 73
+ 0.33552 3 2 ack 40 ------- 0 3.1 1.0 44 104
- 0.33552 3 2 ack 40 ------- 0 3.1 1.0 44 104
- 0.33632 1 2 tcp 1040 ------- 0 1.0 3.1 51 87
r 0.33736 3 2 ack 40 ------- 0 3.1 1.0 42 100
+ 0.33736 2 1 ack 40 ------- 0 3.1 1.0 42 100
- 0.33736 2 1 ack 40 ------- 0 3.1 1.0 42 100
r 0.338 1 2 tcp 1040 ------- 0 1.0 3.1 48 81
+ 0.338 2 3 tcp 1040 ------- 0 1.0 3.1 48 81
- 0.338 2 3 tcp 1040 ------- 0 1.0 3.1 48 81
r 0.3392 2 1 ack 40 ------- 0 3.1 1.0 40 96
+ 0.3392 1 2 tcp 1040 ------- 0 1.0 3.1 60 105
r 0.33968 2 3 tcp 1040 ------- 0 1.0 3.1 45 75
+ 0.33968 3 2 ack 40 ------- 0 3.1 1.0 45 106
- 0.33968 3 2 ack 40 ------- 0 3.1 1.0 45 106
- 0.34048 1 2 tcp 1040 ------- 0 1.0 3.1 52 89
r 0.34152 3 2 ack 40 ------- 0 3.1 1.0 43 102
+ 0.34152 2 1 ack 40 ------- 0 3.1 1.0 43 102
- 0.34152 2 1 ack 40 ------- 0 3.1 1.0 43 102
r 0.34216 1 2 tcp 1040 ------- 0 1.0 3.1 49 83
+ 0.34216 2 3 tcp 1040 ------- 0 1.0 3.1 49 83
- 0.34216 2 3 tcp 1040 ------- 0 1.0 3.1 49 83
r 0.34336 2 1 ack 40 ------- 0 3.1 1.0 41 98
+ 0.34336 1 2 tcp 1040 ------- 0 1.0 3.1 61 107
r 0.34384 2 3 tcp 1040 ------- 0 1.0 3.1 46 77
+ 0.34384 3 2 ack 40 ------- 0 3.1 1.0 46 108
- 0.34384 3 2 ack 40 ------- 0 3.1 1.0 46 108
- 0.34464 1 2 tcp 1040 ------- 0 1.0 3.1 53 91
r 0.34568 3 2 ack 40 ------- 0 3.1 1.0 44 104
+ 0.34568 2 1 ack 40 ------- 0 3.1 1.0 44 104
- 0.34568 2 1 ack 40 ------- 0 3.1 1.0 44 104
r 0.34632 1 2 tcp 1040 ------- 0 1.0 3.1 50 85
+ 0.34632 2 3 tcp 1040 ------- 0 1.0 3.1 50 85
- 0.34632 2 3 tcp 1040 ------- 0 1.0 3.1 50 85
r 0.34752 2 1 ack 40 ------- 0 3.1 1.0 42 100
+ 0.34752 1 2 tcp 1040 ------- 0 1.0 3.1 62 109
r 0.348 2 3 tcp 1040 ------- 0 1.0 3.1 47 79
+ 0.348 3 2 ack 40 ------- 0 3.1 1.0 47 110
- 0.348 3 2 ack 40 ------- 0 3.1 1.0 47 110
- 0.3488 1 2 tcp 1040 ------- 0 1.0 3.1 54 93
r 0.34984 3 2 ack 40 ------- 0 3.1 1.0 45 106
+ 0.34984 2 1 ack 40 ------- 0 3.1 1.0 45 106
- 0.34984 2 1 ack 40 ------- 0 3.1 1.0 45 106
r 0.35048 1 2 tcp 1040 ------- 0 1.0 3.1 51 87
+ 0.35048 2 3 tcp 1040 ------- 0 1.0 3.1 51 87
- 0.35048 2 3 tcp 1040 ------- 0 1.0 3.1 51 87
r 0.35168 2 1 ack 40 ------- 0 3.1 1.0 43 102
+ 0.35168 1 2 tcp 1040 ------- 0 1.0 3.1 63 111
r 0.35216 2 3 tcp 1040 ------- 0 1.0 3.1 48 81
+ 0.35216 3 2 ack 40 ------- 0 3.1 1.0 48 112
- 0.35216 3 2 ack 40 ------- 0 3.1 1.0 48 112
- 0.35296 1 2 tcp 1040 ------- 0 1.0 3.1 55 95
r 0.354 3 2 ack 40 ------- 0 3.1 1.0 46 108
+ 0.354 2 1 ack 40 ------- 0 3.1 1.0 46 108
- 0.354 2 1 ack 40 ------- 0 3.1 1.0 46 108
r 0.35464 1 2 tcp 1040 ------- 0 1.0 3.1 52 89
+ 0.35464 2 3 tcp 1040 ------- 0 1.0 3.1 52 89
- 0.35464 2 3 tcp 1040 ------- 0 1.0 3.1 52 89
r 0.35584 2 1 ack 40 ------- 0 3.1 1.0 44 104
+ 0.35584 1 2 tcp 1040 ------- 0 1.0 3.1 64 113
r 0.35632 2 3 tcp 1040 ------- 0 1.0 3.1 49 83
+ 0.35632 3 2 ack 40 ------- 0 3.1 1.0 49 114
- 0.35632 3 2 ack 40 ------- 0 3.1 1.0 49 114
- 0.35712 1 2 tcp 1040 ------- 0 1.0 3.1 56 97
r 0.35816 3 2 ack 40 ------- 0 3.1 1.0 47 110
+ 0.35816 2 1 ack 40 ------- 0 3.1 1.0 47 110
- 0.35816 2 1 ack 40 ------- 0 3.1 1.0 47 110
r 0.3588 1 2 tcp 1040 ------- 0 1.0 3.1 53 91
+ 0.3588 2 3 tcp 1040 ------- 0 1.0 3.1 53 91
- 0.3588 2 3 tcp 1040 ------- 0 1.0 3.1 53 91
r 0.36 2 1 ack 40 ------- 0 3.1 1.0 45 106
+ 0.36 1 2 tcp 1040 ------- 0 1.0 3.1 65 115
r 0.36048 2 3 tcp 1040 ------- 0 1.0 3.1 50 85
+ 0.36048 3 2 ack 40 ------- 0 3.1 1.0 50 116
- 0.36048 3 2 ack 40 ------- 0 3.1 1.0 50 116
- 0.36128 1 2 tcp 1040 ------- 0 1.0 3.1 57 99
r 0.36232 3 2 ack 40 ------- 0 3.1 1.0 48 112
+ 0.36232 2 1 ack 40 ------- 0 3.1 1.0 48 112
- 0.36232 2 1 ack 40 ------- 0 3.1 1.0 48 112
r 0.36296 1 2 tcp 1040 ------- 0 1.0 3.1 54 93
+ 0.36296 2 3 tcp 1040 ------- 0 1.0 3.1 54 93
- 0.36296 2 3 tcp 1040 ------- 0 1.0 3.1 54 93
r 0.36416 2 1 ack 40 ------- 0 3.1 1.0 46 108
+ 0.36416 1 2 tcp 1040 ------- 0 1.0 3.1 66 117
r 0.36464 2 3 tcp 1040 ------- 0 1.0 3.1 51 87
+ 0.36464 3 2 ack 40 ------- 0 3.1 1.0 51 118
- 0.36464 3 2 ack 40 ------- 0 3.1 1.0 51 118
- 0.36544 1 2 tcp 1040 ------- 0 1.0 3.1 58 101
r 0.36648 3 2 ack 40 ------- 0 3.1 1.0 49 114
+ 0.36648 2 1 ack 40 ------- 0 3.1 1.0 49 114
- 0.36648 2 1 ack 40 ------- 0 3.1 1.0 49 114
r 0.36712 1 2 tcp 1040 ------- 0 1.0 3.1 55 95
+ 0.36712 2 3 tcp 1040 ------- 0 1.0 3.1 55 95
- 0.36712 2 3 tcp 1040 ------- 0 1.0 3.1 55 95
r 0.36832 2 1 ack 40 ------- 0 3.1 1.0 47 110
+ 0.36832 1 2 tcp 1040 ------- 0 1.0 3.1 67 119
r 0.3688 2 3 tcp 1040 ------- 0 1.0 3.1 52 89
+ 0.3688 3 2 ack 40 ------- 0 3.1 1.0 52 120
- 0.3688 3 2 ack 40 ------- 0 3.1 1.0 52 120
- 0.3696 1 2 tcp 1040 ------- 0 1.0 3.1 59 103
r 0.37064 3 2 ack 40 ------- 0 3.1 1.0 50 116
+ 0.37064 2 1 ack 40 ------- 0 3.1 1.0 50 116
- 0.37064 2 1 ack 40 ------- 0 3.1 1.0 50 116
r 0.37128 1 2 tcp 1040 ------- 0 1.0 3.1 56 97