V -t * -v 1.0a5 -a 0
A -t * -n 1 -p 0 -o 0x7fffffff -c 30 -a 1
A -t * -h 1 -m 1073741823 -s 0
n -t * -a 0 -s 0 -S UP -v circle -c black -i black
n -t * -a 1 -s 1 -S UP -v circle -c black -i black
n -t * -a 2 -s 2 -S UP -v circle -c black -i black
l -t * -s 0 -d 1 -S UP -r 2000000 -D 0.10000000000000001 -c black
l -t * -s 1 -d 2 -S UP -r 2000000 -D 0.10000000000000001 -c black
+ -t 1 -s 0 -d 1 -p tcp -e 40 -c 0 -i 0 -a 0 -x {0.0 2.0 0 ------- null}
- -t 1 -s 0 -d 1 -p tcp -e 40 -c 0 -i 0 -a 0 -x {0.0 2.0 0 ------- null}
h -t 1 -s 0 -d 1 -p tcp -e 40 -c 0 -i 0 -a 0 -x {0.0 2.0 -1 ------- null}
r -t 1.10016 -s 0 -d 1 -p tcp -e 40 -c 0 -i 0 -a 0 -x {0.0 2.0 0 ------- null}
+ -t 1.10016 -s 1 -d 2 -p tcp -e 40 -c 0 -i 0 -a 0 -x {0.0 2.0 0 ------- null}
- -t 1.10016 -s 1 -d 2 -p tcp -e 40 -c 0 -i 0 -a 0 -x {0.0 2.0 0 ------- null}
h -t 1.10016 -s 1 -d 2 -p tcp -e 40 -c 0 -i 0 -a 0 -x {0.0 2.0 -1 ------- null}
r -t 1.20032 -s 1 -d 2 -p tcp -e 40 -c 0 -i 0 -a 0 -x {0.0 2.0 0 ------- null}
+ -t 1.20032 -s 2 -d 1 -p ack -e 40 -c 0 -i 1 -a 0 -x {2.0 0.0 0 ------- null}
- -t 1.20032 -s 2 -d 1 -p ack -e 40 -c 0 -i 1 -a 0 -x {2.0 0.0 0 ------- null}
h -t 1.20032 -s 2 -d 1 -p ack -e 40 -c 0 -i 1 -a 0 -x {2.0 0.0 -1 ------- null}
r -t 1.30048 -s 2 -d 1 -p ack -e 40 -c 0 -i 1 -a 0 -x {2.0 0.0 0 ------- null}
+ -t 1.30048 -s 1 -d 0 -p ack -e 40 -c 0 -i 1 -a 0 -x {2.0 0.0 0 ------- null}
- -t 1.30048 -s 1 -d 0 -p ack -e 40 -c 0 -i 1 -a 0 -x {2.0 0.0 0 ------- null}
h -t 1.30048 -s 1 -d 0 -p ack -e 40 -c 0 -i 1 -a 0 -x {2.0 0.0 -1 ------- null}
r -t 1.40064 -s 1 -d 0 -p ack -e 40 -c 0 -i 1 -a 0 -x {2.0 0.0 0 ------- null}
+ -t 1.40064 -s 0 -d 1 -p tcp -e 1040 -c 0 -i 2 -a 0 -x {0.0 2.0 1 ------- null}
- -t 1.40064 -s 0 -d 1 -p tcp -e 1040 -c 0 -i 2 -a 0 -x {0.0 2.0 1 ------- null}
h -t 1.40064 -s 0 -d 1 -p tcp -e 1040 -c 0 -i 2 -a 0 -x {0.0 2.0 -1 ------- null}
+ -t 1.40064 -s 0 -d 1 -p tcp -e 1040 -c 0 -i 3 -a 0 -x {0.0 2.0 2 ------- null}
- -t 1.4048 -s 0 -d 1 -p tcp -e 1040 -c 0 -i 3 -a 0 -x {0.0 2.0 2 ------- null}
h -t 1.4048 -s 0 -d 1 -p tcp -e 1040 -c 0 -i 3 -a 0 -x {0.0 2.0 -1 ------- null}
r -t 1.5048 -s 0 -d 1 -p tcp -e 1040 -c 0 -i 2 -a 0 -x {0.0 2.0 1 ------- null}
+ -t 1.5048 -s 1 -d 2 -p tcp -e 1040 -c 0 -i 2 -a 0 -x {0.0 2.0 1 ------- null}
- -t 1.5048 -s 1 -d 2 -p tcp -e 1040 -c 0 -i 2 -a 0 -x {0.0 2.0 1 ------- null}
h -t 1.5048 -s 1 -d 2 -p tcp -e 1040 -c 0 -i 2 -a 0 -x {0.0 2.0 -1 ------- null}
r -t 1.50896 -s 0 -d 1 -p tcp -e 1040 -c 0 -i 3 -a 0 -x {0.0 2.0 2 ------- null}
+ -t 1.50896 -s 1 -d 2 -p tcp -e 1040 -c 0 -i 3 -a 0 -x {0.0 2.0 2 ------- null}
- -t 1.50896 -s 1 -d 2 -p tcp -e 1040 -c 0 -i 3 -a 0 -x {0.0 2.0 2 ------- null}
h -t 1.50896 -s 1 -d 2 -p tcp -e 1040 -c 0 -i 3 -a 0 -x {0.0 2.0 -1 ------- null}
r -t 1.60896 -s 1 -d 2 -p tcp -e 1040 -c 0 -i 2 -a 0 -x {0.0 2.0 1 ------- null}
+ -t 1.60896 -s 2 -d 1 -p ack -e 40 -c 0 -i 4 -a 0 -x {2.0 0.0 1 ------- null}
- -t 1.60896 -s 2 -d 1 -p ack -e 40 -c 0 -i 4 -a 0 -x {2.0 0.0 1 ------- null}
h -t 1.60896 -s 2 -d 1 -p ack -e 40 -c 0 -i 4 -a 0 -x {2.0 0.0 -1 ------- null}
r -t 1.61312 -s 1 -d 2 -p tcp -e 1040 -c 0 -i 3 -a 0 -x {0.0 2.0 2 ------- null}
+ -t 1.61312 -s 2 -d 1 -p ack -e 40 -c 0 -i 5 -a 0 -x {2.0 0.0 2 ------- null}
- -t 1.61312 -s 2 -d 1 -p ack -e 40 -c 0 -i 5 -a 0 -x {2.0 0.0 2 ------- null}
h -t 1.61312 -s 2 -d 1 -p ack -e 40 -c 0 -i 5 -a 0 -x {2.0 0.0 -1 ------- null}
r -t 1.70912 -s 2 -d 1 -p ack -e 40 -c 0 -i 4 -a 0 -x {2.0 0.0 1 ------- null}
+ -t 1.70912 -s 1 -d 0 -p ack -e 40 -c 0 -i 4 -a 0 -x {2.0 0.0 1 ------- null}
- -t 1.70912 -s 1 -d 0 -p ack -e 40 -c 0 -i 4 -a 0 -x {2.0 0.0 1 ------- null}
h -t 1.70912 -s 1 -d 0 -p ack -e 40 -c 0 -i 4 -a 0 -x {2.0 0.0 -1 ------- null}
r -t 1.71328 -s 2 -d 1 -p ack -e 40 -c 0 -i 5 -a 0 -x {2.0 0.0 2 ------- null}
+ -t 1.71328 -s 1 -d 0 -p ack -e 40 -c 0 -i 5 -a 0 -x {2.0 0.0 2 ------- null}
- -t 1.71328 -s 1 -d 0 -p ack -e 40 -c 0 -i 5 -a 0 -x {2.0 0.0 2 ------- null}
h -t 1.71328 -s 1 -d 0 -p ack -e 40 -c 0 -i 5 -a 0 -x {2.0 0.0 -1 ------- null}
r -t 1.80928 -s 1 -d 0 -p ack -e 40 -c 0 -i 4 -a 0 -x {2.0 0.0 1 ------- null}
+ -t 1.80928 -s 0 -d 1 -p tcp -e 1040 -c 0 -i 6 -a 0 -x {0.0 2.0 3 ------- null}
- -t 1.80928 -s 0 -d 1 -p tcp -e 1040 -c 0 -i 6 -a 0 -x {0.0 2.0 3 ------- null}
h -t 1.80928 -s 0 -d 1 -p tcp -e 1040 -c 0 -i 6 -a 0 -x {0.0 2.0 -1 ------- null}
+ -t 1.80928 -s 0 -d 1 -p tcp -e 1040 -c 0 -i 7 -a 0 -x {0.0 2.0 4 ------- null}
r -t 1.81344 -s 1 -d 0 -p ack -e 40 -c 0 -i 5 -a 0 -x {2.0 0.0 2 ------- null}
+ -t 1.81344 -s 0 -d 1 -p tcp -e 1040 -c 0 -i 8 -a 0 -x {0.0 2.0 5 ------- null}
+ -t 1.81344 -s 0 -d 1 -p tcp -e 1040 -c 0 -i 9 -a 0 -x {0.0 2.0 6 ------- null}
- -t 1.81344 -s 0 -d 1 -p tcp -e 1040 -c 0 -i 7 -a 0 -x {0.0 2.0 4 ------- null}
h -t 1.81344 -s 0 -d 1 -p tcp -e 1040 -c 0 -i 7 -a 0 -x {0.0 2.0 -1 ------- null}
- -t 1.8176 -s 0 -d 1 -p tcp -e 1040 -c 0 -i 8 -a 0 -x {0.0 2.0 5 ------- null}
h -t 1.8176 -s 0 -d 1 -p tcp -e 1040 -c 0 -i 8 -a 0 -x {0.0 2.0 -1 ------- null}
- -t 1.82176 -s 0 -d 1 -p tcp -e 1040 -c 0 -i 9 -a 0 -x {0.0 2.0 6 ------- null}
h -t 1.82176 -s 0 -d 1 -p tcp -e 1040 -c 0 -i 9 -a 0 -x {0.0 2.0 -1 ------- null}
r -t 1.91344 -s 0 -d 1 -p tcp -e 1040 -c 0 -i 6 -a 0 -x {0.0 2.0 3 ------- null}
+ -t 1.91344 -s 1 -d 2 -p tcp -e 1040 -c 0 -i 6 -a 0 -x {0.0 2.0 3 ------- null}
- -t 1.91344 -s 1 -d 2 -p tcp -e 1040 -c 0 -i 6 -a 0 -x {0.0 2.0 3 ------- null}
h -t 1.91344 -s 1 -d 2 -p tcp -e 1040 -c 0 -i 6 -a 0 -x {0.0 2.0 -1 ------- null}
r -t 1.9176 -s 0 -d 1 -p tcp -e 1040 -c 0 -i 7 -a 0 -x {0.0 2.0 4 ------- null}
+ -t 1.9176 -s 1 -d 2 -p tcp -e 1040 -c 0 -i 7 -a 0 -x {0.0 2.0 4 ------- null}
- -t 1.9176 -s 1 -d 2 -p tcp -e 1040 -c 0 -i 7 -a 0 -x {0.0 2.0 4 ------- null}
h -t 1.9176 -s 1 -d 2 -p tcp -e 1040 -c 0 -i 7 -a 0 -x {0.0 2.0 -1 ------- null}
r -t 1.92176 -s 0 -d 1 -p tcp -e 1040 -c 0 -i 8 -a 0 -x {0.0 2.0 5 ------- null}
+ -t 1.92176 -s 1 -d 2 -p tcp -e 1040 -c 0 -i 8 -a 0 -x {0.0 2.0 5 ------- null}
- -t 1.92176 -s 1 -d 2 -p tcp -e 1040 -c 0 -i 8 -a 0 -x {0.0 2.0 5 ------- null}
h -t 1.92176 -s 1 -d 2 -p tcp -e 1040 -c 0 -i 8 -a 0 -x {0.0 2.0 -1 ------- null}
r -t 1.92592 -s 0 -d 1 -p tcp -e 1040 -c 0 -i 9 -a 0 -x {0.0 2.0 6 ------- null}
+ -t 1.92592 -s 1 -d 2 -p tcp -e 1040 -c 0 -i 9 -a 0 -x {0.0 2.0 6 ------- null}
- -t 1.92592 -s 1 -d 2 -p tcp -e 1040 -c 0 -i 9 -a 0 -x {0.0 2.0 6 ------- null}
h -t 1.92592 -s 1 -d 2 -p tcp -e 1040 -c 0 -i 9 -a 0 -x {0.0 2.0 -1 ------- null}
r -t 2.0176 -s 1 -d 2 -p tcp -e 1040 -c 0 -i 6 -a 0 -x {0.0 2.0 3 ------- null}
+ -t 2.0176 -s 2 -d 1 -p ack -e 40 -c 0 -i 10 -a 0 -x {2.0 0.0 3 ------- null}
- -t 2.0176 -s 2 -d 1 -p ack -e 40 -c 0 -i 10 -a 0 -x {2.0 0.0 3 ------- null}
h -t 2.0176 -s 2 -d 1 -p ack -e 40 -c 0 -i 10 -a 0 -x {2.0 0.0 -1 ------- null}
r -t 2.02176 -s 1 -d 2 -p tcp -e 1040 -c 0 -i 7 -a 0 -x {0.0 2.0 4 ------- null}
+ -t 2.02176 -s 2 -d 1 -p ack -e 40 -c 0 -i 11 -a 0 -x {2.0 0.0 4 ------- null}
- -t 2.02176 -s 2 -d 1 -p ack -e 40 -c 0 -i 11 -a 0 -x {2.0 0.0 4 ------- null}
h -t 2.02176 -s 2 -d 1 -p ack -e 40 -c 0 -i 11 -a 0 -x {2.0 0.0 -1 ------- null}
r -t 2.02592 -s 1 -d 2 -p tcp -e 1040 -c 0 -i 8 -a 0 -x {0.0 2.0 5 ------- null}
+ -t 2.02592 -s 2 -d 1 -p ack -e 40 -c 0 -i 12 -a 0 -x {2.0 0.0 5 ------- null}
- -t 2.02592 -s 2 -d 1 -p ack -e 40 -c 0 -i 12 -a 0 -x {2.0 0.0 5 ------- null}
h -t 2.02592 -s 2 -d 1 -p ack -e 40 -c 0 -i 12 -a 0 -x {2.0 0.0 -1 ------- null}
r -t 2.03008 -s 1 -d 2 -p tcp -e 1040 -c 0 -i 9 -a 0 -x {0.0 2.0 6 ------- null}
+ -t 2.03008 -s 2 -d 1 -p ack -e 40 -c 0 -i 13 -a 0 -x {2.0 0.0 6 ------- null}
- -t 2.03008 -s 2 -d 1 -p ack -e 40 -c 0 -i 13 -a 0 -x {2.0 0.0 6 ------- null}
h -t 2.03008 -s 2 -d 1 -p ack -e 40 -c 0 -i 13 -a 0 -x {2.0 0.0 -1 ------- null}
r -t 2.11776 -s 2 -d 1 -p ack -e 40 -c 0 -i 10 -a 0 -x {2.0 0.0 3 ------- null}
+ -t 2.11776 -s 1 -d 0 -p ack -e 40 -c 0 -i 10 -a 0 -x {2.0 0.0 3 ------- null}
- -t 2.11776 -s 1 -d 0 -p ack -e 40 -c 0 -i 10 -a 0 -x {2.0 0.0 3 ------- null}
h -t 2.11776 -s 1 -d 0 -p ack -e 40 -c 0 -i 10 -a 0 -x {2.0 0.0 -1 ------- null}
r -t 2.12192 -s 2 -d 1 -p ack -e 40 -c 0 -i 11 -a 0 -x {2.0 0.0 4 ------- null}
+ -t 2.12192 -s 1 -d 0 -p ack -e 40 -c 0 -i 11 -a 0 -x {2.0 0.0 4 ------- null}
- -t 2.12192 -s 1 -d 0 -p ack -e 40 -c 0 -i 11 -a 0 -x {2.0 0.0 4 ------- null}
h -t 2.12192 -s 1 -d 0 -p ack -e 40 -c 0 -i 11 -a 0 -x {2.0 0.0 -1 ------- null}
r -t 2.12608 -s 2 -d 1 -p ack -e 40 -c 0 -i 12 -a 0 -x {2.0 0.0 5 ------- null}
+ -t 2.12608 -s 1 -d 0 -p ack -e 40 -c 0 -i 12 -a 0 -x {2.0 0.0 5 ------- null}
- -t 2.12608 -s 1 -d 0 -p ack -e 40 -c 0 -i 12 -a 0 -x {2.0 0.0 5 ------- null}
h -t 2.12608 -s 1 -d 0 -p ack -e 40 -c 0 -i 12 -a 0 -x {2.0 0.0 -1 ------- null}
r -t 2.13024 -s 2 -d 1 -p ack -e 40 -c 0 -i 13 -a 0 -x {2.0 0.0 6 ------- null}
+ -t 2.13024 -s 1 -d 0 -p ack -e 40 -c 0 -i 13 -a 0 -x {2.0 0.0 6 ------- null}
- -t 2.13024 -s 1 -d 0 -p ack -e 40 -c 0 -i 13 -a 0 -x {2.0 0.0 6 ------- null}
h -t 2.13024 -s 1 -d 0 -p ack -e 40 -c 0 -i 13 -a 0 -x {2.0 0.0 -1 ------- null}
r -t 2.21792 -s 1 -d 0 -p ack -e 40 -c 0 -i 10 -a 0 -x {2.0 0.0 3 ------- null}
+ -t 2.21792 -s 0 -d 1 -p tcp -e 1040 -c 0 -i 14 -a 0 -x {0.0 2.0 7 ------- null}
- -t 2.21792 -s 0 -d 1 -p tcp -e 1040 -c 0 -i 14 -a 0 -x {0.0 2.0 7 ------- null}
h -t 2.21792 -s 0 -d 1 -p tcp -e 1040 -c 0 -i 14 -a 0 -x {0.0 2.0 -1 ------- null}
+ -t 2.21792 -s 0 -d 1 -p tcp -e 1040 -c 0 -i 15 -a 0 -x {0.0 2.0 8 ------- null}
r -t 2.22208 -s 1 -d 0 -p ack -e 40 -c 0 -i 11 -a 0 -x {2.0 0.0 4 ------- null}
+ -t 2.22208 -s 0 -d 1 -p tcp -e 1040 -c 0 -i 16 -a 0 -x {0.0 2.0 9 ------- null}
+ -t 2.22208 -s 0 -d 1 -p tcp -e 1040 -c 0 -i 17 -a 0 -x {0.0 2.0 10 ------- null}
- -t 2.22208 -s 0 -d 1 -p tcp -e 1040 -c 0 -i 15 -a 0 -x {0.0 2.0 8 ------- null}
h -t 2.22208 -s 0 -d 1 -p tcp -e 1040 -c 0 -i 15 -a 0 -x {0.0 2.0 -1 ------- null}
r -t 2.22624 -s 1 -d 0 -p ack -e 40 -c 0 -i 12 -a 0 -x {2.0 0.0 5 ------- null}
+ -t 2.22624 -s 0 -d 1 -p tcp -e 1040 -c 0 -i 18 -a 0 -x {0.0 2.0 11 ------- null}
+ -t 2.22624 -s 0 -d 1 -p tcp -e 1040 -c 0 -i 19 -a 0 -x {0.0 2.0 12 ------- null}
- -t 2.22624 -s 0 -d 1 -p tcp -e 1040 -c 0 -i 16 -a 0 -x {0.0 2.0 9 ------- null}
h -t 2.22624 -s 0 -d 1 -p tcp -e 1040 -c 0 -i 16 -a 0 -x {0.0 2.0 -1 ------- null}
r -t 2.2304 -s 1 -d 0 -p ack -e 40 -c 0 -i 13 -a 0 -x {2.0 0.0 6 ------- null}
+ -t 2.2304 -s 0 -d 1 -p tcp -e 1040 -c 0 -i 20 -a 0 -x {0.0 2.0 13 ------- null}
+ -t 2.2304 -s 0 -d 1 -p tcp -e 1040 -c 0 -i 21 -a 0 -x {0.0 2.0 14 ------- null}
- -t 2.2304 -s 0 -d 1 -p tcp -e 1040 -c 0 -i 17 -a 0 -x {0.0 2.0 10 ------- null}
h -t 2.2304 -s 0 -d 1 -p tcp -e 1040 -c 0 -i 17 -a 0 -x {0.0 2.0 -1 ------- null}
- -t 2.23456 -s 0 -d 1 -p tcp -e 1040 -c 0 -i 18 -a 0 -x {0.0 2.0 11 ------- null}
h -t 2.23456 -s 0 -d 1 -p tcp -e 1040 -c 0 -i 18 -a 0 -x {0.0 2.0 -1 ------- null}
- -t 2.23872 -s 0 -d 1 -p tcp -e 1040 -c 0 -i 19 -a 0 -x {0.0 2.0 12 ------- null}
h -t 2.23872 -s 0 -d 1 -p tcp -e 1040 -c 0 -i 19 -a 0 -x {0.0 2.0 -1 ------- null}
- -t 2.24288 -s 0 -d 1 -p tcp -e 1040 -c 0 -i 20 -a 0 -x {0.0 2.0 13 ------- null}
h -t 2.24288 -s 0 -d 1 -p tcp -e 1040 -c 0 -i 20 -a 0 -x {0.0 2.0 -1 ------- null}
- -t 2.24704 -s 0 -d 1 -p tcp -e 1040 -c 0 -i 21 -a 0 -x {0.0 2.0 14 ------- null}
h -t 2.24704 -s 0 -d 1 -p tcp -e 1040 -c 0 -i 21 -a 0 -x {0.0 2.0 -1 ------- null}
r -t 2.32208 -s 0 -d 1 -p tcp -e 1040 -c 0 -i 14 -a 0 -x {0.0 2.0 7 ------- null}
+ -t 2.32208 -s 1 -d 2 -p tcp -e 1040 -c 0 -i 14 -a 0 -x {0.0 2.0 7 ------- null}
- -t 2.32208 -s 1 -d 2 -p tcp -e 1040 -c 0 -i 14 -a 0 -x {0.0 2.0 7 ------- null}
h -t 2.32208 -s 1 -d 2 -p tcp -e 1040 -c 0 -i 14 -a 0 -x {0.0 2.0 -1 ------- null}
r -t 2.32624 -s 0 -d 1 -p tcp -e 1040 -c 0 -i 15 -a 0 -x {0.0 2.0 8 ------- null}
+ -t 2.32624 -s 1 -d 2 -p tcp -e 1040 -c 0 -i 15 -a 0 -x {0.0 2.0 8 ------- null}
- -t 2.32624 -s 1 -d 2 -p tcp -e 1040 -c 0 -i 15 -a 0 -x {0.0 2.0 8 ------- null}
h -t 2.32624 -s 1 -d 2 -p tcp -e 1040 -c 0 -i 15 -a 0 -x {0.0 2.0 -1 ------- null}
r -t 2.3304 -s 0 -d 1 -p tcp -e 1040 -c 0 -i 16 -a 0 -x {0.0 2.0 9 ------- null}
+ -t 2.3304 -s 1 -d 2 -p tcp -e 1040 -c 0 -i 16 -a 0 -x {0.0 2.0 9 ------- null}
- -t 2.3304 -s 1 -d 2 -p tcp -e 1040 -c 0 -i 16 -a 0 -x {0.0 2.0 9 ------- null}
h -t 2.3304 -s 1 -d 2 -p tcp -e 1040 -c 0 -i 16 -a 0 -x {0.0 2.0 -1 ------- null}
r -t 2.33456 -s 0 -d 1 -p tcp -e 1040 -c 0 -i 17 -a 0 -x {0.0 2.0 10 ------- null}
+ -t 2.33456 -s 1 -d 2 -p tcp -e 1040 -c 0 -i 17 -a 0 -x {0.0 2.0 10 ------- null}
- -t 2.33456 -s 1 -d 2 -p tcp -e 1040 -c 0 -i 17 -a 0 -x {0.0 2.0 10 ------- null}
h -t 2.33456 -s 1 -d 2 -p tcp -e 1040 -c 0 -i 17 -a 0 -x {0.0 2.0 -1 ------- null}
r -t 2.33872 -s 0 -d 1 -p tcp -e 1040 -c 0 -i 18 -a 0 -x {0.0 2.0 11 ------- null}
+ -t 2.33872 -s 1 -d 2 -p tcp -e 1040 -c 0 -i 18 -a 0 -x {0.0 2.0 11 ------- null}
- -t 2.33872 -s 1 -d 2 -p tcp -e 1040 -c 0 -i 18 -a 0 -x {0.0 2.0 11 ------- null}
h -t 2.33872 -s 1 -d 2 -p tcp -e 1040 -c 0 -i 18 -a 0 -x {0.0 2.0 -1 ------- null}
r -t 2.34288 -s 0 -d 1 -p tcp -e 1040 -c 0 -i 19 -a 0 -x {0.0 2.0 12 ------- null}
+ -t 2.34288 -s 1 -d 2 -p tcp -e 1040 -c 0 -i 19 -a 0 -x {0.0 2.0 12 ------- null}
- -t 2.34288 -s 1 -d 2 -p tcp -e 1040 -c 0 -i 19 -a 0 -x {0.0 2.0 12 ------- null}
h -t 2.34288 -s 1 -d 2 -p tcp -e 1040 -c 0 -i 19 -a 0 -x {0.0 2.0 -1 ------- null}
r -t 2.34704 -s 0 -d 1 -p tcp -e 1040 -c 0 -i 20 -a 0 -x {0.0 2.0 13 ------- null}
+ -t 2.34704 -s 1 -d 2 -p tcp -e 1040 -c 0 -i 20 -a 0 -x {0.0 2.0 13 ------- null}
- -t 2.34704 -s 1 -d 2 -p tcp -e 1040 -c 0 -i 20 -a 0 -x {0.0 2.0 13 ------- null}
h -t 2.34704 -s 1 -d 2 -p tcp -e 1040 -c 0 -i 20 -a 0 -x {0.0 2.0 -1 ------- null}
r -t 2.3512 -s 0 -d 1 -p tcp -e 1040 -c 0 -i 21 -a 0 -x {0.0 2.0 14 ------- null}
+ -t 2.3512 -s 1 -d 2 -p tcp -e 1040 -c 0 -i 21 -a 0 -x {0.0 2.0 14 ------- null}
- -t 2.3512 -s 1 -d 2 -p tcp -e 1040 -c 0 -i 21 -a 0 -x {0.0 2.0 14 ------- null}
h -t 2.3512 -s 1 -d 2 -p tcp -e 1040 -c 0 -i 21 -a 0 -x {0.0 2.0 -1 ------- null}
r -t 2.42624 -s 1 -d 2 -p tcp -e 1040 -c 0 -i 14 -a 0 -x {0.0 2.0 7 ------- null}
+ -t 2.42624 -s 2 -d 1 -p ack -e 40 -c 0 -i 22 -a 0 -x {2.0 0.0 7 ------- null}
- -t 2.42624 -s 2 -d 1 -p ack -e 40 -c 0 -i 22 -a 0 -x {2.0 0.0 7 ------- null}
h -t 2.42624 -s 2 -d 1 -p ack -e 40 -c 0 -i 22 -a 0 -x {2.0 0.0 -1 ------- null}
r -t 2.4304 -s 1 -d 2 -p tcp -e 1040 -c 0 -i 15 -a 0 -x {0.0 2.0 8 ------- null}
+ -t 2.4304 -s 2 -d 1 -p ack -e 40 -c 0 -i 23 -a 0 -x {2.0 0.0 8 ------- null}
- -t 2.4304 -s 2 -d 1 -p ack -e 40 -c 0 -i 23 -a 0 -x {2.0 0.0 8 ------- null}
h -t 2.4304 -s 2 -d 1 -p ack -e 40 -c 0 -i 23 -a 0 -x {2.0 0.0 -1 ------- null}
r -t 2.43456 -s 1 -d 2 -p tcp -e 1040 -c 0 -i 16 -a 0 -x {0.0 2.0 9 ------- null}
+ -t 2.43456 -s 2 -d 1 -p ack -e 40 -c 0 -i 24 -a 0 -x {2.0 0.0 9 ------- null}
- -t 2.43456 -s 2 -d 1 -p ack -e 40 -c 0 -i 24 -a 0 -x {2.0 0.0 9 ------- null}
h -t 2.43456 -s 2 -d 1 -p ack -e 40 -c 0 -i 24 -a 0 -x {2.0 0.0 -1 ------- null}
r -t 2.43872 -s 1 -d 2 -p tcp -e 1040 -c 0 -i 17 -a 0 -x {0.0 2.0 10 ------- null}
+ -t 2.43872 -s 2 -d 1 -p ack -e 40 -c 0 -i 25 -a 0 -x {2.0 0.0 10 ------- null}
- -t 2.43872 -s 2 -d 1 -p ack -e 40 -c 0 -i 25 -a 0 -x {2.0 0.0 10 ------- null}
h -t 2.43872 -s 2 -d 1 -p ack -e 40 -c 0 -i 25 -a 0 -x {2.0 0.0 -1 ------- null}
r -t 2.44288 -s 1 -d 2 -p tcp -e 1040 -c 0 -i 18 -a 0 -x {0.0 2.0 11 ------- null}
+ -t 2.44288 -s 2 -d 1 -p ack -e 40 -c 0 -i 26 -a 0 -x {2.0 0.0 11 ------- null}
- -t 2.44288 -s 2 -d 1 -p ack -e 40 -c 0 -i 26 -a 0 -x {2.0 0.0 11 ------- null}
h -t 2.44288 -s 2 -d 1 -p ack -e 40 -c 0 -i 26 -a 0 -x {2.0 0.0 -1 ------- null}
r -t 2.44704 -s 1 -d 2 -p tcp -e 1040 -c 0 -i 19 -a 0 -x {0.0 2.0 12 ------- null}
+ -t 2.44704 -s 2 -d 1 -p ack -e 40 -c 0 -i 27 -a 0 -x {2.0 0.0 12 ------- null}
- -t 2.44704 -s 2 -d 1 -p ack -e 40 -c 0 -i 27 -a 0 -x {2.0 0.0 12 ------- null}
h -t 2.44704 -s 2 -d 1 -p ack -e 40 -c 0 -i 27 -a 0 -x {2.0 0.0 -1 ------- null}
r -t 2.4512 -s 1 -d 2 -p tcp -e 1040 -c 0 -i 20 -a 0 -x {0.0 2.0 13 ------- null}
+ -t 2.4512 -s 2 -d 1 -p ack -e 40 -c 0 -i 28 -a 0 -x {2.0 0.0 13 ------- null}
- -t 2.4512 -s 2 -d 1 -p ack -e 40 -c 0 -i 28 -a 0 -x {2.0 0.0 13 ------- null}
h -t 2.4512 -s 2 -d 1 -p ack -e 40 -c 0 -i 28 -a 0 -x {2.0 0.0 -1 ------- null}
r -t 2.45536 -s 1 -d 2 -p tcp -e 1040 -c 0 -i 21 -a 0 -x {0.0 2.0 14 ------- null}
+ -t 2.45536 -s 2 -d 1 -p ack -e 40 -c 0 -i 29 -a 0 -x {2.0 0.0 14 ------- null}
- -t 2.45536 -s 2 -d 1 -p ack -e 40 -c 0 -i 29 -a 0 -x {2.0 0.0 14 ------- null}
h -t 2.45536 -s 2 -d 1 -p ack -e 40 -c 0 -i 29 -a 0 -x {2.0 0.0 -1 ------- null}
r -t 2.5264 -s 2 -d 1 -p ack -e 40 -c 0 -i 22 -a 0 -x {2.0 0.0 7 ------- null}
+ -t 2.5264 -s 1 -d 0 -p ack -e 40 -c 0 -i 22 -a 0 -x {2.0 0.0 7 ------- null}
- -t 2.5264 -s 1 -d 0 -p ack -e 40 -c 0 -i 22 -a 0 -x {2.0 0.0 7 ------- null}
h -t 2.5264 -s 1 -d 0 -p ack -e 40 -c 0 -i 22 -a 0 -x {2.0 0.0 -1 ------- null}
r -t 2.53056 -s 2 -d 1 -p ack -e 40 -c 0 -i 23 -a 0 -x {2.0 0.0 8 ------- null}
+ -t 2.53056 -s 1 -d 0 -p ack -e 40 -c 0 -i 23 -a 0 -x {2.0 0.0 8 ------- null}
- -t 2.53056 -s 1 -d 0 -p ack -e 40 -c 0 -i 23 -a 0 -x {2.0 0.0 8 ------- null}
h -t 2.53056 -s 1 -d 0 -p ack -e 40 -c 0 -i 23 -a 0 -x {2.0 0.0 -1 ------- null}
r -t 2.53472 -s 2 -d 1 -p ack -e 40 -c 0 -i 24 -a 0 -x {2.0 0.0 9 ------- null}
+ -t 2.53472 -s 1 -d 0 -p ack -e 40 -c 0 -i 24 -a 0 -x {2.0 0.0 9 ------- null}
- -t 2.53472 -s 1 -d 0 -p ack -e 40 -c 0 -i 24 -a 0 -x {2.0 0.0 9 ------- null}
h -t 2.53472 -s 1 -d 0 -p ack -e 40 -c 0 -i 24 -a 0 -x {2.0 0.0 -1 ------- null}
r -t 2.53888 -s 2 -d 1 -p ack -e 40 -c 0 -i 25 -a 0 -x {2.0 0.0 10 ------- null}
+ -t 2.53888 -s 1 -d 0 -p ack -e 40 -c 0 -i 25 -a 0 -x {2.0 0.0 10 ------- null}
- -t 2.53888 -s 1 -d 0 -p ack -e 40 -c 0 -i 25 -a 0 -x {2.0 0.0 10 ------- null}
h -t 2.53888 -s 1 -d 0 -p ack -e 40 -c 0 -i 25 -a 0 -x {2.0 0.0 -1 ------- null}
r -t 2.54304 -s 2 -d 1 -p ack -e 40 -c 0 -i 26 -a 0 -x {2.0 0.0 11 ------- null}
+ -t 2.54304 -s 1 -d 0 -p ack -e 40 -c 0 -i 26 -a 0 -x {2.0 0.0 11 ------- null}
- -t 2.54304 -s 1 -d 0 -p ack -e 40 -c 0 -i 26 -a 0 -x {2.0 0.0 11 ------- null}
h -t 2.54304 -s 1 -d 0 -p ack -e 40 -c 0 -i 26 -a 0 -x {2.0 0.0 -1 ------- null}
r -t 2.5472 -s 2 -d 1 -p ack -e 40 -c 0 -i 27 -a 0 -x {2.0 0.0 12 ------- null}
+ -t 2.5472 -s 1 -d 0 -p ack -e 40 -c 0 -i 27 -a 0 -x {2.0 0.0 12 ------- null}
- -t 2.5472 -s 1 -d 0 -p ack -e 40 -c 0 -i 27 -a 0 -x {2.0 0.0 12 ------- null}
h -t 2.5472 -s 1 -d 0 -p ack -e 40 -c 0 -i 27 -a 0 -x {2.0 0.0 -1 ------- null}
r -t 2.55136 -s 2 -d 1 -p ack -e 40 -c 0 -i 28 -a 0 -x {2.0 0.0 13 ------- null}
+ -t 2.55136 -s 1 -d 0 -p ack -e 40 -c 0 -i 28 -a 0 -x {2.0 0.0 13 ------- null}
- -t 2.55136 -s 1 -d 0 -p ack -e 40 -c 0 -i 28 -a 0 -x {2.0 0.0 13 ------- null}
h -t 2.55136 -s 1 -d 0 -p ack -e 40 -c 0 -i 28 -a 0 -x {2.0 0.0 -1 ------- null}
r -t 2.55552 -s 2 -d 1 -p ack -e 40 -c 0 -i 29 -a 0 -x {2.0 0.0 14 ------- null}
+ -t 2.55552 -s 1 -d 0 -p ack -e 40 -c 0 -i 29 -a 0 -x {2.0 0.0 14 ------- null}
- -t 2.55552 -s 1 -d 0 -p ack -e 40 -c 0 -i 29 -a 0 -x {2.0 0.0 14 ------- null}
h -t 2.55552 -s 1 -d 0 -p ack -e 40 -c 0 -i 29 -a 0 -x {2.0 0.0 -1 ------- null}
r -t 2.62656 -s 1 -d 0 -p ack -e 40 -c 0 -i 22 -a 0 -x {2.0 0.0 7 ------- null}
+ -t 2.62656 -s 0 -d 1 -p tcp -e 1040 -c 0 -i 30 -a 0 -x {0.0 2.0 15 ------- null}
- -t 2.62656 -s 0 -d 1 -p tcp -e 1040 -c 0 -i 30 -a 0 -x {0.0 2.0 15 ------- null}
h -t 2.62656 -s 0 -d 1 -p tcp -e 1040 -c 0 -i 30 -a 0 -x {0.0 2.0 -1 ------- null}
+ -t 2.62656 -s 0 -d 1 -p tcp -e 1040 -c 0 -i 31 -a 0 -x {0.0 2.0 16 ------- null}
r -t 2.63072 -s 1 -d 0 -p ack -e 40 -c 0 -i 23 -a 0 -x {2.0 0.0 8 ------- null}
+ -t 2.63072 -s 0 -d 1 -p tcp -e 1040 -c 0 -i 32 -a 0 -x {0.0 2.0 17 ------- null}
+ -t 2.63072 -s 0 -d 1 -p tcp -e 1040 -c 0 -i 33 -a 0 -x {0.0 2.0 18 ------- null}
- -t 2.63072 -s 0 -d 1 -p tcp -e 1040 -c 0 -i 31 -a 0 -x {0.0 2.0 16 ------- null}
h -t 2.63072 -s 0 -d 1 -p tcp -e 1040 -c 0 -i 31 -a 0 -x {0.0 2.0 -1 ------- null}
r -t 2.63488 -s 1 -d 0 -p ack -e 40 -c 0 -i 24 -a 0 -x {2.0 0.0 9 ------- null}
+ -t 2.63488 -s 0 -d 1 -p tcp -e 1040 -c 0 -i 34 -a 0 -x {0.0 2.0 19 ------- null}
+ -t 2.63488 -s 0 -d 1 -p tcp -e 1040 -c 0 -i 35 -a 0 -x {0.0 2.0 20 ------- null}
- -t 2.63488 -s 0 -d 1 -p tcp -e 1040 -c 0 -i 32 -a 0 -x {0.0 2.0 17 ------- null}
h -t 2.63488 -s 0 -d 1 -p tcp -e 1040 -c 0 -i 32 -a 0 -x {0.0 2.0 -1 ------- null}
r -t 2.63904 -s 1 -d 0 -p ack -e 40 -c 0 -i 25 -a 0 -x {2.0 0.0 10 ------- null}
+ -t 2.63904 -s 0 -d 1 -p tcp -e 1040 -c 0 -i 36 -a 0 -x {0.0 2.0 21 ------- null}
+ -t 2.63904 -s 0 -d 1 -p tcp -e 1040 -c 0 -i 37 -a 0 -x {0.0 2.0 22 ------- null}
- -t 2.63904 -s 0 -d 1 -p tcp -e 1040 -c 0 -i 33 -a 0 -x {0.0 2.0 18 ------- null}
h -t 2.63904 -s 0 -d 1 -p tcp -e 1040 -c 0 -i 33 -a 0 -x {0.0 2.0 -1 ------- null}
r -t 2.6432 -s 1 -d 0 -p ack -e 40 -c 0 -i 26 -a 0 -x {2.0 0.0 11 ------- null}
+ -t 2.6432 -s 0 -d 1 -p tcp -e 1040 -c 0 -i 38 -a 0 -x {0.0 2.0 23 ------- null}
+ -t 2.6432 -s 0 -d 1 -p tcp -e 1040 -c 0 -i 39 -a 0 -x {0.0 2.0 24 ------- null}
- -t 2.6432 -s 0 -d 1 -p tcp -e 1040 -c 0 -i 34 -a 0 -x {0.0 2.0 19 ------- null}
h -t 2.6432 -s 0 -d 1 -p tcp -e 1040 -c 0 -i 34 -a 0 -x {0.0 2.0 -1 ------- null}
r -t 2.64736 -s 1 -d 0 -p ack -e 40 -c 0 -i 27 -a 0 -x {2.0 0.0 12 ------- null}
+ -t 2.64736 -s 0 -d 1 -p tcp -e 1040 -c 0 -i 40 -a 0 -x {0.0 2.0 25 ------- null}
+ -t 2.64736 -s 0 -d 1 -p tcp -e 1040 -c 0 -i 41 -a 0 -x {0.0 2.0 26 ------- null}
- -t 2.64736 -s 0 -d 1 -p tcp -e 1040 -c 0 -i 35 -a 0 -x {0.0 2.0 20 ------- null}
h -t 2.64736 -s 0 -d 1 -p tcp -e 1040 -c 0 -i 35 -a 0 -x {0.0 2.0 -1 ------- null}
r -t 2.65152 -s 1 -d 0 -p ack -e 40 -c 0 -i 28 -a 0 -x {2.0 0.0 13 ------- null}
+ -t 2.65152 -s 0 -d 1 -p tcp -e 1040 -c 0 -i 42 -a 0 -x {0.0 2.0 27 ------- null}
+ -t 2.65152 -s 0 -d 1 -p tcp -e 1040 -c 0 -i 43 -a 0 -x {0.0 2.0 28 ------- null}
- -t 2.65152 -s 0 -d 1 -p tcp -e 1040 -c 0 -i 36 -a 0 -x {0.0 2.0 21 ------- null}
h -t 2.65152 -s 0 -d 1 -p tcp -e 1040 -c 0 -i 36 -a 0 -x {0.0 2.0 -1 ------- null}
r -t 2.65568 -s 1 -d 0 -p ack -e 40 -c 0 -i 29 -a 0 -x {2.0 0.0 14 ------- null}
+ -t 2.65568 -s 0 -d 1 -p tcp -e 1040 -c 0 -i 44 -a 0 -x {0.0 2.0 29 ------- null}
+ -t 2.65568 -s 0 -d 1 -p tcp -e 1040 -c 0 -i 45 -a 0 -x {0.0 2.0 30 ------- null}
- -t 2.65568 -s 0 -d 1 -p tcp -e 1040 -c 0 -i 37 -a 0 -x {0.0 2.0 22 ------- null}
h -t 2.65568 -s 0 -d 1 -p tcp -e 1040 -c 0 -i 37 -a 0 -x {0.0 2.0 -1 ------- null}
- -t 2.65984 -s 0 -d 1 -p tcp -e 1040 -c 0 -i 38 -a 0 -x {0.0 2.0 23 ------- null}
h -t 2.65984 -s 0 -d 1 -p tcp -e 1040 -c 0 -i 38 -a 0 -x {0.0 2.0 -1 ------- null}
- -t 2.664 -s 0 -d 1 -p tcp -e 1040 -c 0 -i 39 -a 0 -x {0.0 2.0 24 ------- null}
h -t 2.664 -s 0 -d 1 -p tcp -e 1040 -c 0 -i 39 -a 0 -x {0.0 2.0 -1 ------- null}
- -t 2.66816 -s 0 -d 1 -p tcp -e 1040 -c 0 -i 40 -a 0 -x {0.0 2.0 25 ------- null}
h -t 2.66816 -s 0 -d 1 -p tcp -e 1040 -c 0 -i 40 -a 0 -x {0.0 2.0 -1 ------- null}
- -t 2.67232 -s 0 -d 1 -p tcp -e 1040 -c 0 -i 41 -a 0 -x {0.0 2.0 26 ------- null}
h -t 2.67232 -s 0 -d 1 -p tcp -e 1040 -c 0 -i 41 -a 0 -x {0.0 2.0 -1 ------- null}
- -t 2.67648 -s 0 -d 1 -p tcp -e 1040 -c 0 -i 42 -a 0 -x {0.0 2.0 27 ------- null}
h -t 2.67648 -s 0 -d 1 -p tcp -e 1040 -c 0 -i 42 -a 0 -x {0.0 2.0 -1 ------- null}
- -t 2.68064 -s 0 -d 1 -p tcp -e 1040 -c 0 -i 43 -a 0 -x {0.0 2.0 28 ------- null}
h -t 2.68064 -s 0 -d 1 -p tcp -e 1040 -c 0 -i 43 -a 0 -x {0.0 2.0 -1 ------- null}
- -t 2.6848 -s 0 -d 1 -p tcp -e 1040 -c 0 -i 44 -a 0 -x {0.0 2.0 29 ------- null}
h -t 2.6848 -s 0 -d 1 -p tcp -e 1040 -c 0 -i 44 -a 0 -x {0.0 2.0 -1 ------- null}
- -t 2.68896 -s 0 -d 1 -p tcp -e 1040 -c 0 -i 45 -a 0 -x {0.0 2.0 30 ------- null}
h -t 2.68896 -s 0 -d 1 -p tcp -e 1040 -c 0 -i 45 -a 0 -x {0.0 2.0 -1 ------- null}
r -t 2.73072 -s 0 -d 1 -p tcp -e 1040 -c 0 -i 30 -a 0 -x {0.0 2.0 15 ------- null}
+ -t 2.73072 -s 1 -d 2 -p tcp -e 1040 -c 0 -i 30 -a 0 -x {0.0 2.0 15 ------- null}
- -t 2.73072 -s 1 -d 2 -p tcp -e 1040 -c 0 -i 30 -a 0 -x {0.0 2.0 15 ------- null}
h -t 2.73072 -s 1 -d 2 -p tcp -e 1040 -c 0 -i 30 -a 0 -x {0.0 2.0 -1 ------- null}
r -t 2.73488 -s 0 -d 1 -p tcp -e 1040 -c 0 -i 31 -a 0 -x {0.0 2.0 16 ------- null}
+ -t 2.73488 -s 1 -d 2 -p tcp -e 1040 -c 0 -i 31 -a 0 -x {0.0 2.0 16 ------- null}
- -t 2.73488 -s 1 -d 2 -p tcp -e 1040 -c 0 -i 31 -a 0 -x {0.0 2.0 16 ------- null}
h -t 2.73488 -s 1 -d 2 -p tcp -e 1040 -c 0 -i 31 -a 0 -x {0.0 2.0 -1 ------- null}
r -t 2.73904 -s 0 -d 1 -p tcp -e 1040 -c 0 -i 32 -a 0 -x {0.0 2.0 17 ------- null}
+ -t 2.73904 -s 1 -d 2 -p tcp -e 1040 -c 0 -i 32 -a 0 -x {0.0 2.0 17 ------- null}
- -t 2.73904 -s 1 -d 2 -p tcp -e 1040 -c 0 -i 32 -a 0 -x {0.0 2.0 17 ------- null}
h -t 2.73904 -s 1 -d 2 -p tcp -e 1040 -c 0 -i 32 -a 0 -x {0.0 2.0 -1 ------- null}
r -t 2.7432 -s 0 -d 1 -p tcp -e 1040 -c 0 -i 33 -a 0 -x {0.0 2.0 18 ------- null}
+ -t 2.7432 -s 1 -d 2 -p tcp -e 1040 -c 0 -i 33 -a 0 -x {0.0 2.0 18 ------- null}
- -t 2.7432 -s 1 -d 2 -p tcp -e 1040 -c 0 -i 33 -a 0 -x {0.0 2.0 18 ------- null}
h -t 2.7432 -s 1 -d 2 -p tcp -e 1040 -c 0 -i 33 -a 0 -x {0.0 2.0 -1 ------- null}
r -t 2.74736 -s 0 -d 1 -p tcp -e 1040 -c 0 -i 34 -a 0 -x {0.0 2.0 19 ------- null}
+ -t 2.74736 -s 1 -d 2 -p tcp -e 1040 -c 0 -i 34 -a 0 -x {0.0 2.0 19 ------- null}
- -t 2.74736 -s 1 -d 2 -p tcp -e 1040 -c 0 -i 34 -a 0 -x {0.0 2.0 19 ------- null}
h -t 2.74736 -s 1 -d 2 -p tcp -e 1040 -c 0 -i 34 -a 0 -x {0.0 2.0 -1 ------- null}
r -t 2.75152 -s 0 -d 1 -p tcp -e 1040 -c 0 -i 35 -a 0 -x {0.0 2.0 20 ------- null}
+ -t 2.75152 -s 1 -d 2 -p tcp -e 1040 -c 0 -i 35 -a 0 -x {0.0 2.0 20 ------- null}
- -t 2.75152 -s 1 -d 2 -p tcp -e 1040 -c 0 -i 35 -a 0 -x {0.0 2.0 20 ------- null}
h -t 2.75152 -s 1 -d 2 -p tcp -e 1040 -c 0 -i 35 -a 0 -x {0.0 2.0 -1 ------- null}
r -t 2.75568 -s 0 -d 1 -p tcp -e 1040 -c 0 -i 36 -a 0 -x {0.0 2.0 21 ------- null}
+ -t 2.75568 -s 1 -d 2 -p tcp -e 1040 -c 0 -i 36 -a 0 -x {0.0 2.0 21 ------- null}
- -t 2.75568 -s 1 -d 2 -p tcp -e 1040 -c 0 -i 36 -a 0 -x {0.0 2.0 21 ------- null}
h -t 2.75568 -s 1 -d 2 -p tcp -e 1040 -c 0 -i 36 -a 0 -x {0.0 2.0 -1 ------- null}
r -t 2.75984 -s 0 -d 1 -p tcp -e 1040 -c 0 -i 37 -a 0 -x {0.0 2.0 22 ------- null}
+ -t 2.75984 -s 1 -d 2 -p tcp -e 1040 -c 0 -i 37 -a 0 -x {0.0 2.0 22 ------- null}
- -t 2.75984 -s 1 -d 2 -p tcp -e 1040 -c 0 -i 37 -a 0 -x {0.0 2.0 22 ------- null}
h -t 2.75984 -s 1 -d 2 -p tcp -e 1040 -c 0 -i 37 -a 0 -x {0.0 2.0 -1 ------- null}
r -t 2.764 -s 0 -d 1 -p tcp -e 1040 -c 0 -i 38 -a 0 -x {0.0 2.0 23 ------- null}
+ -t 2.764 -s 1 -d 2 -p tcp -e 1040 -c 0 -i 38 -a 0 -x {0.0 2.0 23 ------- null}
- -t 2.764 -s 1 -d 2 -p tcp -e 1040 -c 0 -i 38 -a 0 -x {0.0 2.0 23 ------- null}
h -t 2.764 -s 1 -d 2 -p tcp -e 1040 -c 0 -i 38 -a 0 -x {0.0 2.0 -1 ------- null}
r -t 2.76816 -s 0 -d 1 -p tcp -e 1040 -c 0 -i 39 -a 0 -x {0.0 2.0 24 ------- null}
+ -t 2.76816 -s 1 -d 2 -p tcp -e 1040 -c 0 -i 39 -a 0 -x {0.0 2.0 24 ------- null}
- -t 2.76816 -s 1 -d 2 -p tcp -e 1040 -c 0 -i 39 -a 0 -x {0.0 2.0 24 ------- null}
h -t 2.76816 -s 1 -d 2 -p tcp -e 1040 -c 0 -i 39 -a 0 -x {0.0 2.0 -1 ------- null}
r -t 2.77232 -s 0 -d 1 -p tcp -e 1040 -c 0 -i 40 -a 0 -x {0.0 2.0 25 ------- null}
+ -t 2.77232 -s 1 -d 2 -p tcp -e 1040 -c 0 -i 40 -a 0 -x {0.0 2.0 25 ------- null}
- -t 2.77232 -s 1 -d 2 -p tcp -e 1040 -c 0 -i 40 -a 0 -x {0.0 2.0 25 ------- null}
h -t 2.77232 -s 1 -d 2 -p tcp -e 1040 -c 0 -i 40 -a 0 -x {0.0 2.0 -1 ------- null}
r -t 2.77648 -s 0 -d 1 -p tcp -e 1040 -c 0 -i 41 -a 0 -x {0.0 2.0 26 ------- null}
+ -t 2.77648 -s 1 -d 2 -p tcp -e 1040 -c 0 -i 41 -a 0 -x {0.0 2.0 26 ------- null}
- -t 2.77648 -s 1 -d 2 -p tcp -e 1040 -c 0 -i 41 -a 0 -x {0.0 2.0 26 ------- null}
h -t 2.77648 -s 1 -d 2 -p tcp -e 1040 -c 0 -i 41 -a 0 -x {0.0 2.0 -1 ------- null}
r -t 2.78064 -s 0 -d 1 -p tcp -e 1040 -c 0 -i 42 -a 0 -x {0.0 2.0 27 ------- null}
+ -t 2.78064 -s 1 -d 2 -p tcp -e 1040 -c 0 -i 42 -a 0 -x {0.0 2.0 27 ------- null}
- -t 2.78064 -s 1 -d 2 -p tcp -e 1040 -c 0 -i 42 -a 0 -x {0.0 2.0 27 ------- null}
h -t 2.78064 -s 1 -d 2 -p tcp -e 1040 -c 0 -i 42 -a 0 -x {0.0 2.0 -1 ------- null}
r -t 2.7848 -s 0 -d 1 -p tcp -e 1040 -c 0 -i 43 -a 0 -x {0.0 2.0 28 ------- null}
+ -t 2.7848 -s 1 -d 2 -p tcp -e 1040 -c 0 -i 43 -a 0 -x {0.0 2.0 28 ------- null}
- -t 2.7848 -s 1 -d 2 -p tcp -e 1040 -c 0 -i 43 -a 0 -x {0.0 2.0 28 ------- null}
h -t 2.7848 -s 1 -d 2 -p tcp -e 1040 -c 0 -i 43 -a 0 -x {0.0 2.0 -1 ------- null}
r -t 2.78896 -s 0 -d 1 -p tcp -e 1040 -c 0 -i 44 -a 0 -x {0.0 2.0 29 ------- null}
+ -t 2.78896 -s 1 -d 2 -p tcp -e 1040 -c 0 -i 44 -a 0 -x {0.0 2.0 29 ------- null}
- -t 2.78896 -s 1 -d 2 -p tcp -e 1040 -c 0 -i 44 -a 0 -x {0.0 2.0 29 ------- null}
h -t 2.78896 -s 1 -d 2 -p tcp -e 1040 -c 0 -i 44 -a 0 -x {0.0 2.0 -1 ------- null}
r -t 2.79312 -s 0 -d 1 -p tcp -e 1040 -c 0 -i 45 -a 0 -x {0.0 2.0 30 ------- null}
+ -t 2.79312 -s 1 -d 2 -p tcp -e 1040 -c 0 -i 45 -a 0 -x {0.0 2.0 30 ------- null}
- -t 2.79312 -s 1 -d 2 -p tcp -e 1040 -c 0 -i 45 -a 0 -x {0.0 2.0 30 ------- null}
h -t 2.79312 -s 1 -d 2 -p tcp -e 1040 -c 0 -i 45 -a 0 -x {0.0 2.0 -1 ------- null}
r -t 2.83488 -s 1 -d 2 -p tcp -e 1040 -c 0 -i 30 -a 0 -x {0.0 2.0 15 ------- null}
+ -t 2.83488 -s 2 -d 1 -p ack -e 40 -c 0 -i 46 -a 0 -x {2.0 0.0 15 ------- null}
- -t 2.83488 -s 2 -d 1 -p ack -e 40 -c 0 -i 46 -a 0 -x {2.0 0.0 15 ------- null}
h -t 2.83488 -s 2 -d 1 -p ack -e 40 -c 0 -i 46 -a 0 -x {2.0 0.0 -1 ------- null}
r -t 2.83904 -s 1 -d 2 -p tcp -e 1040 -c 0 -i 31 -a 0 -x {0.0 2.0 16 ------- null}
+ -t 2.83904 -s 2 -d 1 -p ack -e 40 -c 0 -i 47 -a 0 -x {2.0 0.0 16 ------- null}
- -t 2.83904 -s 2 -d 1 -p ack -e 40 -c 0 -i 47 -a 0 -x {2.0 0.0 16 ------- null}
h -t 2.83904 -s 2 -d 1 -p ack -e 40 -c 0 -i 47 -a 0 -x {2.0 0.0 -1 ------- null}
r -t 2.8432 -s 1 -d 2 -p tcp -e 1040 -c 0 -i 32 -a 0 -x {0.0 2.0 17 ------- null}
+ -t 2.8432 -s 2 -d 1 -p ack -e 40 -c 0 -i 48 -a 0 -x {2.0 0.0 17 ------- null}
- -t 2.8432 -s 2 -d 1 -p ack -e 40 -c 0 -i 48 -a 0 -x {2.0 0.0 17 ------- null}