+ 1 0 1 tcp 40 ------- 0 0.0 2.0 0 0
- 1 0 1 tcp 40 ------- 0 0.0 2.0 0 0
r 1.10016 0 1 tcp 40 ------- 0 0.0 2.0 0 0
+ 1.10016 1 2 tcp 40 ------- 0 0.0 2.0 0 0
- 1.10016 1 2 tcp 40 ------- 0 0.0 2.0 0 0
r 1.20032 1 2 tcp 40 ------- 0 0.0 2.0 0 0
+ 1.20032 2 1 ack 40 ------- 0 2.0 0.0 0 1
- 1.20032 2 1 ack 40 ------- 0 2.0 0.0 0 1
r 1.30048 2 1 ack 40 ------- 0 2.0 0.0 0 1
+ 1.30048 1 0 ack 40 ------- 0 2.0 0.0 0 1
- 1.30048 1 0 ack 40 ------- 0 2.0 0.0 0 1
r 1.40064 1 0 ack 40 ------- 0 2.0 0.0 0 1
+ 1.40064 0 1 tcp 1040 ------- 0 0.0 2.0 1 2
- 1.40064 0 1 tcp 1040 ------- 0 0.0 2.0 1 2
+ 1.40064 0 1 tcp 1040 ------- 0 0.0 2.0 2 3
- 1.4048 0 1 tcp 1040 ------- 0 0.0 2.0 2 3
r 1.5048 0 1 tcp 1040 ------- 0 0.0 2.0 1 2
+ 1.5048 1 2 tcp 1040 ------- 0 0.0 2.0 1 2
- 1.5048 1 2 tcp 1040 ------- 0 0.0 2.0 1 2
r 1.50896 0 1 tcp 1040 ------- 0 0.0 2.0 2 3
+ 1.50896 1 2 tcp 1040 ------- 0 0.0 2.0 2 3
- 1.50896 1 2 tcp 1040 ------- 0 0.0 2.0 2 3
r 1.60896 1 2 tcp 1040 ------- 0 0.0 2.0 1 2
+ 1.60896 2 1 ack 40 ------- 0 2.0 0.0 1 4
- 1.60896 2 1 ack 40 ------- 0 2.0 0.0 1 4
r 1.61312 1 2 tcp 1040 ------- 0 0.0 2.0 2 3
+ 1.61312 2 1 ack 40 ------- 0 2.0 0.0 2 5
- 1.61312 2 1 ack 40 ------- 0 2.0 0.0 2 5
r 1.70912 2 1 ack 40 ------- 0 2.0 0.0 1 4
+ 1.70912 1 0 ack 40 ------- 0 2.0 0.0 1 4
- 1.70912 1 0 ack 40 ------- 0 2.0 0.0 1 4
r 1.71328 2 1 ack 40 ------- 0 2.0 0.0 2 5
+ 1.71328 1 0 ack 40 ------- 0 2.0 0.0 2 5
- 1.71328 1 0 ack 40 ------- 0 2.0 0.0 2 5
r 1.80928 1 0 ack 40 ------- 0 2.0 0.0 1 4
+ 1.80928 0 1 tcp 1040 ------- 0 0.0 2.0 3 6
- 1.80928 0 1 tcp 1040 ------- 0 0.0 2.0 3 6
+ 1.80928 0 1 tcp 1040 ------- 0 0.0 2.0 4 7
r 1.81344 1 0 ack 40 ------- 0 2.0 0.0 2 5
+ 1.81344 0 1 tcp 1040 ------- 0 0.0 2.0 5 8
+ 1.81344 0 1 tcp 1040 ------- 0 0.0 2.0 6 9
- 1.81344 0 1 tcp 1040 ------- 0 0.0 2.0 4 7
- 1.8176 0 1 tcp 1040 ------- 0 0.0 2.0 5 8
- 1.82176 0 1 tcp 1040 ------- 0 0.0 2.0 6 9
r 1.91344 0 1 tcp 1040 ------- 0 0.0 2.0 3 6
+ 1.91344 1 2 tcp 1040 ------- 0 0.0 2.0 3 6
- 1.91344 1 2 tcp 1040 ------- 0 0.0 2.0 3 6
r 1.9176 0 1 tcp 1040 ------- 0 0.0 2.0 4 7
+ 1.9176 1 2 tcp 1040 ------- 0 0.0 2.0 4 7
- 1.9176 1 2 tcp 1040 ------- 0 0.0 2.0 4 7
r 1.92176 0 1 tcp 1040 ------- 0 0.0 2.0 5 8
+ 1.92176 1 2 tcp 1040 ------- 0 0.0 2.0 5 8
- 1.92176 1 2 tcp 1040 ------- 0 0.0 2.0 5 8
r 1.92592 0 1 tcp 1040 ------- 0 0.0 2.0 6 9
+ 1.92592 1 2 tcp 1040 ------- 0 0.0 2.0 6 9
- 1.92592 1 2 tcp 1040 ------- 0 0.0 2.0 6 9
r 2.0176 1 2 tcp 1040 ------- 0 0.0 2.0 3 6
+ 2.0176 2 1 ack 40 ------- 0 2.0 0.0 3 10
- 2.0176 2 1 ack 40 ------- 0 2.0 0.0 3 10
r 2.02176 1 2 tcp 1040 ------- 0 0.0 2.0 4 7
+ 2.02176 2 1 ack 40 ------- 0 2.0 0.0 4 11
- 2.02176 2 1 ack 40 ------- 0 2.0 0.0 4 11
r 2.02592 1 2 tcp 1040 ------- 0 0.0 2.0 5 8
+ 2.02592 2 1 ack 40 ------- 0 2.0 0.0 5 12
- 2.02592 2 1 ack 40 ------- 0 2.0 0.0 5 12
r 2.03008 1 2 tcp 1040 ------- 0 0.0 2.0 6 9
+ 2.03008 2 1 ack 40 ------- 0 2.0 0.0 6 13
- 2.03008 2 1 ack 40 ------- 0 2.0 0.0 6 13
r 2.11776 2 1 ack 40 ------- 0 2.0 0.0 3 10
+ 2.11776 1 0 ack 40 ------- 0 2.0 0.0 3 10
- 2.11776 1 0 ack 40 ------- 0 2.0 0.0 3 10
r 2.12192 2 1 ack 40 ------- 0 2.0 0.0 4 11
+ 2.12192 1 0 ack 40 ------- 0 2.0 0.0 4 11
- 2.12192 1 0 ack 40 ------- 0 2.0 0.0 4 11
r 2.12608 2 1 ack 40 ------- 0 2.0 0.0 5 12
+ 2.12608 1 0 ack 40 ------- 0 2.0 0.0 5 12
- 2.12608 1 0 ack 40 ------- 0 2.0 0.0 5 12
r 2.13024 2 1 ack 40 ------- 0 2.0 0.0 6 13
+ 2.13024 1 0 ack 40 ------- 0 2.0 0.0 6 13
- 2.13024 1 0 ack 40 ------- 0 2.0 0.0 6 13
r 2.21792 1 0 ack 40 ------- 0 2.0 0.0 3 10
+ 2.21792 0 1 tcp 1040 ------- 0 0.0 2.0 7 14
- 2.21792 0 1 tcp 1040 ------- 0 0.0 2.0 7 14
+ 2.21792 0 1 tcp 1040 ------- 0 0.0 2.0 8 15
r 2.22208 1 0 ack 40 ------- 0 2.0 0.0 4 11
+ 2.22208 0 1 tcp 1040 ------- 0 0.0 2.0 9 16
+ 2.22208 0 1 tcp 1040 ------- 0 0.0 2.0 10 17
- 2.22208 0 1 tcp 1040 ------- 0 0.0 2.0 8 15
r 2.22624 1 0 ack 40 ------- 0 2.0 0.0 5 12
+ 2.22624 0 1 tcp 1040 ------- 0 0.0 2.0 11 18
+ 2.22624 0 1 tcp 1040 ------- 0 0.0 2.0 12 19
- 2.22624 0 1 tcp 1040 ------- 0 0.0 2.0 9 16
r 2.2304 1 0 ack 40 ------- 0 2.0 0.0 6 13
+ 2.2304 0 1 tcp 1040 ------- 0 0.0 2.0 13 20
+ 2.2304 0 1 tcp 1040 ------- 0 0.0 2.0 14 21
- 2.2304 0 1 tcp 1040 ------- 0 0.0 2.0 10 17
- 2.23456 0 1 tcp 1040 ------- 0 0.0 2.0 11 18
- 2.23872 0 1 tcp 1040 ------- 0 0.0 2.0 12 19
- 2.24288 0 1 tcp 1040 ------- 0 0.0 2.0 13 20
- 2.24704 0 1 tcp 1040 ------- 0 0.0 2.0 14 21
r 2.32208 0 1 tcp 1040 ------- 0 0.0 2.0 7 14
+ 2.32208 1 2 tcp 1040 ------- 0 0.0 2.0 7 14
- 2.32208 1 2 tcp 1040 ------- 0 0.0 2.0 7 14
r 2.32624 0 1 tcp 1040 ------- 0 0.0 2.0 8 15
+ 2.32624 1 2 tcp 1040 ------- 0 0.0 2.0 8 15
- 2.32624 1 2 tcp 1040 ------- 0 0.0 2.0 8 15
r 2.3304 0 1 tcp 1040 ------- 0 0.0 2.0 9 16
+ 2.3304 1 2 tcp 1040 ------- 0 0.0 2.0 9 16
- 2.3304 1 2 tcp 1040 ------- 0 0.0 2.0 9 16
r 2.33456 0 1 tcp 1040 ------- 0 0.0 2.0 10 17
+ 2.33456 1 2 tcp 1040 ------- 0 0.0 2.0 10 17
- 2.33456 1 2 tcp 1040 ------- 0 0.0 2.0 10 17
r 2.33872 0 1 tcp 1040 ------- 0 0.0 2.0 11 18
+ 2.33872 1 2 tcp 1040 ------- 0 0.0 2.0 11 18
- 2.33872 1 2 tcp 1040 ------- 0 0.0 2.0 11 18
r 2.34288 0 1 tcp 1040 ------- 0 0.0 2.0 12 19
+ 2.34288 1 2 tcp 1040 ------- 0 0.0 2.0 12 19
- 2.34288 1 2 tcp 1040 ------- 0 0.0 2.0 12 19
r 2.34704 0 1 tcp 1040 ------- 0 0.0 2.0 13 20
+ 2.34704 1 2 tcp 1040 ------- 0 0.0 2.0 13 20
- 2.34704 1 2 tcp 1040 ------- 0 0.0 2.0 13 20
r 2.3512 0 1 tcp 1040 ------- 0 0.0 2.0 14 21
+ 2.3512 1 2 tcp 1040 ------- 0 0.0 2.0 14 21
- 2.3512 1 2 tcp 1040 ------- 0 0.0 2.0 14 21
r 2.42624 1 2 tcp 1040 ------- 0 0.0 2.0 7 14
+ 2.42624 2 1 ack 40 ------- 0 2.0 0.0 7 22
- 2.42624 2 1 ack 40 ------- 0 2.0 0.0 7 22
r 2.4304 1 2 tcp 1040 ------- 0 0.0 2.0 8 15
+ 2.4304 2 1 ack 40 ------- 0 2.0 0.0 8 23
- 2.4304 2 1 ack 40 ------- 0 2.0 0.0 8 23
r 2.43456 1 2 tcp 1040 ------- 0 0.0 2.0 9 16
+ 2.43456 2 1 ack 40 ------- 0 2.0 0.0 9 24
- 2.43456 2 1 ack 40 ------- 0 2.0 0.0 9 24
r 2.43872 1 2 tcp 1040 ------- 0 0.0 2.0 10 17
+ 2.43872 2 1 ack 40 ------- 0 2.0 0.0 10 25
- 2.43872 2 1 ack 40 ------- 0 2.0 0.0 10 25
r 2.44288 1 2 tcp 1040 ------- 0 0.0 2.0 11 18
+ 2.44288 2 1 ack 40 ------- 0 2.0 0.0 11 26
- 2.44288 2 1 ack 40 ------- 0 2.0 0.0 11 26
r 2.44704 1 2 tcp 1040 ------- 0 0.0 2.0 12 19
+ 2.44704 2 1 ack 40 ------- 0 2.0 0.0 12 27
- 2.44704 2 1 ack 40 ------- 0 2.0 0.0 12 27
r 2.4512 1 2 tcp 1040 ------- 0 0.0 2.0 13 20
+ 2.4512 2 1 ack 40 ------- 0 2.0 0.0 13 28
- 2.4512 2 1 ack 40 ------- 0 2.0 0.0 13 28
r 2.45536 1 2 tcp 1040 ------- 0 0.0 2.0 14 21
+ 2.45536 2 1 ack 40 ------- 0 2.0 0.0 14 29
- 2.45536 2 1 ack 40 ------- 0 2.0 0.0 14 29
r 2.5264 2 1 ack 40 ------- 0 2.0 0.0 7 22
+ 2.5264 1 0 ack 40 ------- 0 2.0 0.0 7 22
- 2.5264 1 0 ack 40 ------- 0 2.0 0.0 7 22
r 2.53056 2 1 ack 40 ------- 0 2.0 0.0 8 23
+ 2.53056 1 0 ack 40 ------- 0 2.0 0.0 8 23
- 2.53056 1 0 ack 40 ------- 0 2.0 0.0 8 23
r 2.53472 2 1 ack 40 ------- 0 2.0 0.0 9 24
+ 2.53472 1 0 ack 40 ------- 0 2.0 0.0 9 24
- 2.53472 1 0 ack 40 ------- 0 2.0 0.0 9 24
r 2.53888 2 1 ack 40 ------- 0 2.0 0.0 10 25
+ 2.53888 1 0 ack 40 ------- 0 2.0 0.0 10 25
- 2.53888 1 0 ack 40 ------- 0 2.0 0.0 10 25
r 2.54304 2 1 ack 40 ------- 0 2.0 0.0 11 26
+ 2.54304 1 0 ack 40 ------- 0 2.0 0.0 11 26
- 2.54304 1 0 ack 40 ------- 0 2.0 0.0 11 26
r 2.5472 2 1 ack 40 ------- 0 2.0 0.0 12 27
+ 2.5472 1 0 ack 40 ------- 0 2.0 0.0 12 27
- 2.5472 1 0 ack 40 ------- 0 2.0 0.0 12 27
r 2.55136 2 1 ack 40 ------- 0 2.0 0.0 13 28
+ 2.55136 1 0 ack 40 ------- 0 2.0 0.0 13 28
- 2.55136 1 0 ack 40 ------- 0 2.0 0.0 13 28
r 2.55552 2 1 ack 40 ------- 0 2.0 0.0 14 29
+ 2.55552 1 0 ack 40 ------- 0 2.0 0.0 14 29
- 2.55552 1 0 ack 40 ------- 0 2.0 0.0 14 29
r 2.62656 1 0 ack 40 ------- 0 2.0 0.0 7 22
+ 2.62656 0 1 tcp 1040 ------- 0 0.0 2.0 15 30
- 2.62656 0 1 tcp 1040 ------- 0 0.0 2.0 15 30
+ 2.62656 0 1 tcp 1040 ------- 0 0.0 2.0 16 31
r 2.63072 1 0 ack 40 ------- 0 2.0 0.0 8 23
+ 2.63072 0 1 tcp 1040 ------- 0 0.0 2.0 17 32
+ 2.63072 0 1 tcp 1040 ------- 0 0.0 2.0 18 33
- 2.63072 0 1 tcp 1040 ------- 0 0.0 2.0 16 31
r 2.63488 1 0 ack 40 ------- 0 2.0 0.0 9 24
+ 2.63488 0 1 tcp 1040 ------- 0 0.0 2.0 19 34
+ 2.63488 0 1 tcp 1040 ------- 0 0.0 2.0 20 35
- 2.63488 0 1 tcp 1040 ------- 0 0.0 2.0 17 32
r 2.63904 1 0 ack 40 ------- 0 2.0 0.0 10 25
+ 2.63904 0 1 tcp 1040 ------- 0 0.0 2.0 21 36
+ 2.63904 0 1 tcp 1040 ------- 0 0.0 2.0 22 37
- 2.63904 0 1 tcp 1040 ------- 0 0.0 2.0 18 33
r 2.6432 1 0 ack 40 ------- 0 2.0 0.0 11 26
+ 2.6432 0 1 tcp 1040 ------- 0 0.0 2.0 23 38
+ 2.6432 0 1 tcp 1040 ------- 0 0.0 2.0 24 39
- 2.6432 0 1 tcp 1040 ------- 0 0.0 2.0 19 34
r 2.64736 1 0 ack 40 ------- 0 2.0 0.0 12 27
+ 2.64736 0 1 tcp 1040 ------- 0 0.0 2.0 25 40
+ 2.64736 0 1 tcp 1040 ------- 0 0.0 2.0 26 41
- 2.64736 0 1 tcp 1040 ------- 0 0.0 2.0 20 35
r 2.65152 1 0 ack 40 ------- 0 2.0 0.0 13 28
+ 2.65152 0 1 tcp 1040 ------- 0 0.0 2.0 27 42
+ 2.65152 0 1 tcp 1040 ------- 0 0.0 2.0 28 43
- 2.65152 0 1 tcp 1040 ------- 0 0.0 2.0 21 36
r 2.65568 1 0 ack 40 ------- 0 2.0 0.0 14 29
+ 2.65568 0 1 tcp 1040 ------- 0 0.0 2.0 29 44
+ 2.65568 0 1 tcp 1040 ------- 0 0.0 2.0 30 45
- 2.65568 0 1 tcp 1040 ------- 0 0.0 2.0 22 37
- 2.65984 0 1 tcp 1040 ------- 0 0.0 2.0 23 38
- 2.664 0 1 tcp 1040 ------- 0 0.0 2.0 24 39
- 2.66816 0 1 tcp 1040 ------- 0 0.0 2.0 25 40
- 2.67232 0 1 tcp 1040 ------- 0 0.0 2.0 26 41
- 2.67648 0 1 tcp 1040 ------- 0 0.0 2.0 27 42
- 2.68064 0 1 tcp 1040 ------- 0 0.0 2.0 28 43
- 2.6848 0 1 tcp 1040 ------- 0 0.0 2.0 29 44
- 2.68896 0 1 tcp 1040 ------- 0 0.0 2.0 30 45
r 2.73072 0 1 tcp 1040 ------- 0 0.0 2.0 15 30
+ 2.73072 1 2 tcp 1040 ------- 0 0.0 2.0 15 30
- 2.73072 1 2 tcp 1040 ------- 0 0.0 2.0 15 30
r 2.73488 0 1 tcp 1040 ------- 0 0.0 2.0 16 31
+ 2.73488 1 2 tcp 1040 ------- 0 0.0 2.0 16 31
- 2.73488 1 2 tcp 1040 ------- 0 0.0 2.0 16 31
r 2.73904 0 1 tcp 1040 ------- 0 0.0 2.0 17 32
+ 2.73904 1 2 tcp 1040 ------- 0 0.0 2.0 17 32
- 2.73904 1 2 tcp 1040 ------- 0 0.0 2.0 17 32
r 2.7432 0 1 tcp 1040 ------- 0 0.0 2.0 18 33
+ 2.7432 1 2 tcp 1040 ------- 0 0.0 2.0 18 33
- 2.7432 1 2 tcp 1040 ------- 0 0.0 2.0 18 33
r 2.74736 0 1 tcp 1040 ------- 0 0.0 2.0 19 34
+ 2.74736 1 2 tcp 1040 ------- 0 0.0 2.0 19 34
- 2.74736 1 2 tcp 1040 ------- 0 0.0 2.0 19 34
r 2.75152 0 1 tcp 1040 ------- 0 0.0 2.0 20 35
+ 2.75152 1 2 tcp 1040 ------- 0 0.0 2.0 20 35
- 2.75152 1 2 tcp 1040 ------- 0 0.0 2.0 20 35
r 2.75568 0 1 tcp 1040 ------- 0 0.0 2.0 21 36
+ 2.75568 1 2 tcp 1040 ------- 0 0.0 2.0 21 36
- 2.75568 1 2 tcp 1040 ------- 0 0.0 2.0 21 36
r 2.75984 0 1 tcp 1040 ------- 0 0.0 2.0 22 37
+ 2.75984 1 2 tcp 1040 ------- 0 0.0 2.0 22 37
- 2.75984 1 2 tcp 1040 ------- 0 0.0 2.0 22 37
r 2.764 0 1 tcp 1040 ------- 0 0.0 2.0 23 38
+ 2.764 1 2 tcp 1040 ------- 0 0.0 2.0 23 38
- 2.764 1 2 tcp 1040 ------- 0 0.0 2.0 23 38
r 2.76816 0 1 tcp 1040 ------- 0 0.0 2.0 24 39
+ 2.76816 1 2 tcp 1040 ------- 0 0.0 2.0 24 39
- 2.76816 1 2 tcp 1040 ------- 0 0.0 2.0 24 39
r 2.77232 0 1 tcp 1040 ------- 0 0.0 2.0 25 40
+ 2.77232 1 2 tcp 1040 ------- 0 0.0 2.0 25 40
- 2.77232 1 2 tcp 1040 ------- 0 0.0 2.0 25 40
r 2.77648 0 1 tcp 1040 ------- 0 0.0 2.0 26 41
+ 2.77648 1 2 tcp 1040 ------- 0 0.0 2.0 26 41
- 2.77648 1 2 tcp 1040 ------- 0 0.0 2.0 26 41
r 2.78064 0 1 tcp 1040 ------- 0 0.0 2.0 27 42
+ 2.78064 1 2 tcp 1040 ------- 0 0.0 2.0 27 42
- 2.78064 1 2 tcp 1040 ------- 0 0.0 2.0 27 42
r 2.7848 0 1 tcp 1040 ------- 0 0.0 2.0 28 43
+ 2.7848 1 2 tcp 1040 ------- 0 0.0 2.0 28 43
- 2.7848 1 2 tcp 1040 ------- 0 0.0 2.0 28 43
r 2.78896 0 1 tcp 1040 ------- 0 0.0 2.0 29 44
+ 2.78896 1 2 tcp 1040 ------- 0 0.0 2.0 29 44
- 2.78896 1 2 tcp 1040 ------- 0 0.0 2.0 29 44
r 2.79312 0 1 tcp 1040 ------- 0 0.0 2.0 30 45
+ 2.79312 1 2 tcp 1040 ------- 0 0.0 2.0 30 45
- 2.79312 1 2 tcp 1040 ------- 0 0.0 2.0 30 45
r 2.83488 1 2 tcp 1040 ------- 0 0.0 2.0 15 30
+ 2.83488 2 1 ack 40 ------- 0 2.0 0.0 15 46
- 2.83488 2 1 ack 40 ------- 0 2.0 0.0 15 46
r 2.83904 1 2 tcp 1040 ------- 0 0.0 2.0 16 31
+ 2.83904 2 1 ack 40 ------- 0 2.0 0.0 16 47
- 2.83904 2 1 ack 40 ------- 0 2.0 0.0 16 47
r 2.8432 1 2 tcp 1040 ------- 0 0.0 2.0 17 32
+ 2.8432 2 1 ack 40 ------- 0 2.0 0.0 17 48
- 2.8432 2 1 ack 40 ------- 0 2.0 0.0 17 48
r 2.84736 1 2 tcp 1040 ------- 0 0.0 2.0 18 33
+ 2.84736 2 1 ack 40 ------- 0 2.0 0.0 18 49
- 2.84736 2 1 ack 40 ------- 0 2.0 0.0 18 49
r 2.85152 1 2 tcp 1040 ------- 0 0.0 2.0 19 34
+ 2.85152 2 1 ack 40 ------- 0 2.0 0.0 19 50
- 2.85152 2 1 ack 40 ------- 0 2.0 0.0 19 50
r 2.85568 1 2 tcp 1040 ------- 0 0.0 2.0 20 35
+ 2.85568 2 1 ack 40 ------- 0 2.0 0.0 20 51
- 2.85568 2 1 ack 40 ------- 0 2.0 0.0 20 51
r 2.85984 1 2 tcp 1040 ------- 0 0.0 2.0 21 36
+ 2.85984 2 1 ack 40 ------- 0 2.0 0.0 21 52
- 2.85984 2 1 ack 40 ------- 0 2.0 0.0 21 52
r 2.864 1 2 tcp 1040 ------- 0 0.0 2.0 22 37
+ 2.864 2 1 ack 40 ------- 0 2.0 0.0 22 53
- 2.864 2 1 ack 40 ------- 0 2.0 0.0 22 53
r 2.86816 1 2 tcp 1040 ------- 0 0.0 2.0 23 38
+ 2.86816 2 1 ack 40 ------- 0 2.0 0.0 23 54
- 2.86816 2 1 ack 40 ------- 0 2.0 0.0 23 54
r 2.87232 1 2 tcp 1040 ------- 0 0.0 2.0 24 39
+ 2.87232 2 1 ack 40 ------- 0 2.0 0.0 24 55
- 2.87232 2 1 ack 40 ------- 0 2.0 0.0 24 55
r 2.87648 1 2 tcp 1040 ------- 0 0.0 2.0 25 40
+ 2.87648 2 1 ack 40 ------- 0 2.0 0.0 25 56
- 2.87648 2 1 ack 40 ------- 0 2.0 0.0 25 56
r 2.88064 1 2 tcp 1040 ------- 0 0.0 2.0 26 41
+ 2.88064 2 1 ack 40 ------- 0 2.0 0.0 26 57
- 2.88064 2 1 ack 40 ------- 0 2.0 0.0 26 57
r 2.8848 1 2 tcp 1040 ------- 0 0.0 2.0 27 42
+ 2.8848 2 1 ack 40 ------- 0 2.0 0.0 27 58
- 2.8848 2 1 ack 40 ------- 0 2.0 0.0 27 58
r 2.88896 1 2 tcp 1040 ------- 0 0.0 2.0 28 43
+ 2.88896 2 1 ack 40 ------- 0 2.0 0.0 28 59
- 2.88896 2 1 ack 40 ------- 0 2.0 0.0 28 59
r 2.89312 1 2 tcp 1040 ------- 0 0.0 2.0 29 44
+ 2.89312 2 1 ack 40 ------- 0 2.0 0.0 29 60
- 2.89312 2 1 ack 40 ------- 0 2.0 0.0 29 60
r 2.89728 1 2 tcp 1040 ------- 0 0.0 2.0 30 45
+ 2.89728 2 1 ack 40 ------- 0 2.0 0.0 30 61
- 2.89728 2 1 ack 40 ------- 0 2.0 0.0 30 61
r 2.93504 2 1 ack 40 ------- 0 2.0 0.0 15 46
+ 2.93504 1 0 ack 40 ------- 0 2.0 0.0 15 46
- 2.93504 1 0 ack 40 ------- 0 2.0 0.0 15 46
r 2.9392 2 1 ack 40 ------- 0 2.0 0.0 16 47
+ 2.9392 1 0 ack 40 ------- 0 2.0 0.0 16 47
- 2.9392 1 0 ack 40 ------- 0 2.0 0.0 16 47
r 2.94336 2 1 ack 40 ------- 0 2.0 0.0 17 48
+ 2.94336 1 0 ack 40 ------- 0 2.0 0.0 17 48
- 2.94336 1 0 ack 40 ------- 0 2.0 0.0 17 48
r 2.94752 2 1 ack 40 ------- 0 2.0 0.0 18 49
+ 2.94752 1 0 ack 40 ------- 0 2.0 0.0 18 49
- 2.94752 1 0 ack 40 ------- 0 2.0 0.0 18 49
r 2.95168 2 1 ack 40 ------- 0 2.0 0.0 19 50
+ 2.95168 1 0 ack 40 ------- 0 2.0 0.0 19 50
- 2.95168 1 0 ack 40 ------- 0 2.0 0.0 19 50
r 2.95584 2 1 ack 40 ------- 0 2.0 0.0 20 51
+ 2.95584 1 0 ack 40 ------- 0 2.0 0.0 20 51
- 2.95584 1 0 ack 40 ------- 0 2.0 0.0 20 51
r 2.96 2 1 ack 40 ------- 0 2.0 0.0 21 52
+ 2.96 1 0 ack 40 ------- 0 2.0 0.0 21 52
- 2.96 1 0 ack 40 ------- 0 2.0 0.0 21 52
r 2.96416 2 1 ack 40 ------- 0 2.0 0.0 22 53
+ 2.96416 1 0 ack 40 ------- 0 2.0 0.0 22 53
- 2.96416 1 0 ack 40 ------- 0 2.0 0.0 22 53
r 2.96832 2 1 ack 40 ------- 0 2.0 0.0 23 54
+ 2.96832 1 0 ack 40 ------- 0 2.0 0.0 23 54
- 2.96832 1 0 ack 40 ------- 0 2.0 0.0 23 54
r 2.97248 2 1 ack 40 ------- 0 2.0 0.0 24 55
+ 2.97248 1 0 ack 40 ------- 0 2.0 0.0 24 55
- 2.97248 1 0 ack 40 ------- 0 2.0 0.0 24 55
r 2.97664 2 1 ack 40 ------- 0 2.0 0.0 25 56
+ 2.97664 1 0 ack 40 ------- 0 2.0 0.0 25 56
- 2.97664 1 0 ack 40 ------- 0 2.0 0.0 25 56
r 2.9808 2 1 ack 40 ------- 0 2.0 0.0 26 57
+ 2.9808 1 0 ack 40 ------- 0 2.0 0.0 26 57
- 2.9808 1 0 ack 40 ------- 0 2.0 0.0 26 57
r 2.98496 2 1 ack 40 ------- 0 2.0 0.0 27 58
+ 2.98496 1 0 ack 40 ------- 0 2.0 0.0 27 58
- 2.98496 1 0 ack 40 ------- 0 2.0 0.0 27 58
r 2.98912 2 1 ack 40 ------- 0 2.0 0.0 28 59
+ 2.98912 1 0 ack 40 ------- 0 2.0 0.0 28 59
- 2.98912 1 0 ack 40 ------- 0 2.0 0.0 28 59
r 2.99328 2 1 ack 40 ------- 0 2.0 0.0 29 60
+ 2.99328 1 0 ack 40 ------- 0 2.0 0.0 29 60
- 2.99328 1 0 ack 40 ------- 0 2.0 0.0 29 60
r 2.99744 2 1 ack 40 ------- 0 2.0 0.0 30 61
+ 2.99744 1 0 ack 40 ------- 0 2.0 0.0 30 61
- 2.99744 1 0 ack 40 ------- 0 2.0 0.0 30 61
r 3.0352 1 0 ack 40 ------- 0 2.0 0.0 15 46
+ 3.0352 0 1 tcp 1040 ------- 0 0.0 2.0 31 62
- 3.0352 0 1 tcp 1040 ------- 0 0.0 2.0 31 62
+ 3.0352 0 1 tcp 1040 ------- 0 0.0 2.0 32 63
r 3.03936 1 0 ack 40 ------- 0 2.0 0.0 16 47
+ 3.03936 0 1 tcp 1040 ------- 0 0.0 2.0 33 64
+ 3.03936 0 1 tcp 1040 ------- 0 0.0 2.0 34 65
- 3.03936 0 1 tcp 1040 ------- 0 0.0 2.0 32 63
r 3.04352 1 0 ack 40 ------- 0 2.0 0.0 17 48
+ 3.04352 0 1 tcp 1040 ------- 0 0.0 2.0 35 66
+ 3.04352 0 1 tcp 1040 ------- 0 0.0 2.0 36 67
- 3.04352 0 1 tcp 1040 ------- 0 0.0 2.0 33 64
r 3.04768 1 0 ack 40 ------- 0 2.0 0.0 18 49
+ 3.04768 0 1 tcp 1040 ------- 0 0.0 2.0 37 68
+ 3.04768 0 1 tcp 1040 ------- 0 0.0 2.0 38 69
- 3.04768 0 1 tcp 1040 ------- 0 0.0 2.0 34 65
r 3.05184 1 0 ack 40 ------- 0 2.0 0.0 19 50
+ 3.05184 0 1 tcp 1040 ------- 0 0.0 2.0 39 70
- 3.05184 0 1 tcp 1040 ------- 0 0.0 2.0 35 66
r 3.056 1 0 ack 40 ------- 0 2.0 0.0 20 51
+ 3.056 0 1 tcp 1040 ------- 0 0.0 2.0 40 71
- 3.056 0 1 tcp 1040 ------- 0 0.0 2.0 36 67
r 3.06016 1 0 ack 40 ------- 0 2.0 0.0 21 52
+ 3.06016 0 1 tcp 1040 ------- 0 0.0 2.0 41 72
- 3.06016 0 1 tcp 1040 ------- 0 0.0 2.0 37 68
r 3.06432 1 0 ack 40 ------- 0 2.0 0.0 22 53
+ 3.06432 0 1 tcp 1040 ------- 0 0.0 2.0 42 73
- 3.06432 0 1 tcp 1040 ------- 0 0.0 2.0 38 69
r 3.06848 1 0 ack 40 ------- 0 2.0 0.0 23 54
+ 3.06848 0 1 tcp 1040 ------- 0 0.0 2.0 43 74
- 3.06848 0 1 tcp 1040 ------- 0 0.0 2.0 39 70
r 3.07264 1 0 ack 40 ------- 0 2.0 0.0 24 55
+ 3.07264 0 1 tcp 1040 ------- 0 0.0 2.0 44 75
- 3.07264 0 1 tcp 1040 ------- 0 0.0 2.0 40 71
r 3.0768 1 0 ack 40 ------- 0 2.0 0.0 25 56
+ 3.0768 0 1 tcp 1040 ------- 0 0.0 2.0 45 76
- 3.0768 0 1 tcp 1040 ------- 0 0.0 2.0 41 72
r 3.08096 1 0 ack 40 ------- 0 2.0 0.0 26 57
+ 3.08096 0 1 tcp 1040 ------- 0 0.0 2.0 46 77
- 3.08096 0 1 tcp 1040 ------- 0 0.0 2.0 42 73
r 3.08512 1 0 ack 40 ------- 0 2.0 0.0 27 58
+ 3.08512 0 1 tcp 1040 ------- 0 0.0 2.0 47 78
- 3.08512 0 1 tcp 1040 ------- 0 0.0 2.0 43 74
r 3.08928 1 0 ack 40 ------- 0 2.0 0.0 28 59
+ 3.08928 0 1 tcp 1040 ------- 0 0.0 2.0 48 79
- 3.08928 0 1 tcp 1040 ------- 0 0.0 2.0 44 75
r 3.09344 1 0 ack 40 ------- 0 2.0 0.0 29 60
+ 3.09344 0 1 tcp 1040 ------- 0 0.0 2.0 49 80
- 3.09344 0 1 tcp 1040 ------- 0 0.0 2.0 45 76
r 3.0976 1 0 ack 40 ------- 0 2.0 0.0 30 61
+ 3.0976 0 1 tcp 1040 ------- 0 0.0 2.0 50 81
- 3.0976 0 1 tcp 1040 ------- 0 0.0 2.0 46 77
- 3.10176 0 1 tcp 1040 ------- 0 0.0 2.0 47 78
- 3.10592 0 1 tcp 1040 ------- 0 0.0 2.0 48 79
- 3.11008 0 1 tcp 1040 ------- 0 0.0 2.0 49 80
- 3.11424 0 1 tcp 1040 ------- 0 0.0 2.0 50 81
r 3.13936 0 1 tcp 1040 ------- 0 0.0 2.0 31 62
+ 3.13936 1 2 tcp 1040 ------- 0 0.0 2.0 31 62
- 3.13936 1 2 tcp 1040 ------- 0 0.0 2.0 31 62
r 3.14352 0 1 tcp 1040 ------- 0 0.0 2.0 32 63
+ 3.14352 1 2 tcp 1040 ------- 0 0.0 2.0 32 63
- 3.14352 1 2 tcp 1040 ------- 0 0.0 2.0 32 63
r 3.14768 0 1 tcp 1040 ------- 0 0.0 2.0 33 64
+ 3.14768 1 2 tcp 1040 ------- 0 0.0 2.0 33 64
- 3.14768 1 2 tcp 1040 ------- 0 0.0 2.0 33 64
r 3.15184 0 1 tcp 1040 ------- 0 0.0 2.0 34 65
+ 3.15184 1 2 tcp 1040 ------- 0 0.0 2.0 34 65
- 3.15184 1 2 tcp 1040 ------- 0 0.0 2.0 34 65
r 3.156 0 1 tcp 1040 ------- 0 0.0 2.0 35 66
+ 3.156 1 2 tcp 1040 ------- 0 0.0 2.0 35 66
- 3.156 1 2 tcp 1040 ------- 0 0.0 2.0 35 66
r 3.16016 0 1 tcp 1040 ------- 0 0.0 2.0 36 67
+ 3.16016 1 2 tcp 1040 ------- 0 0.0 2.0 36 67
- 3.16016 1 2 tcp 1040 ------- 0 0.0 2.0 36 67
r 3.16432 0 1 tcp 1040 ------- 0 0.0 2.0 37 68
+ 3.16432 1 2 tcp 1040 ------- 0 0.0 2.0 37 68
- 3.16432 1 2 tcp 1040 ------- 0 0.0 2.0 37 68
r 3.16848 0 1 tcp 1040 ------- 0 0.0 2.0 38 69
+ 3.16848 1 2 tcp 1040 ------- 0 0.0 2.0 38 69
- 3.16848 1 2 tcp 1040 ------- 0 0.0 2.0 38 69
r 3.17264 0 1 tcp 1040 ------- 0 0.0 2.0 39 70
+ 3.17264 1 2 tcp 1040 ------- 0 0.0 2.0 39 70
- 3.17264 1 2 tcp 1040 ------- 0 0.0 2.0 39 70
r 3.1768 0 1 tcp 1040 ------- 0 0.0 2.0 40 71
+ 3.1768 1 2 tcp 1040 ------- 0 0.0 2.0 40 71
- 3.1768 1 2 tcp 1040 ------- 0 0.0 2.0 40 71
r 3.18096 0 1 tcp 1040 ------- 0 0.0 2.0 41 72
+ 3.18096 1 2 tcp 1040 ------- 0 0.0 2.0 41 72
- 3.18096 1 2 tcp 1040 ------- 0 0.0 2.0 41 72
r 3.18512 0 1 tcp 1040 ------- 0 0.0 2.0 42 73
+ 3.18512 1 2 tcp 1040 ------- 0 0.0 2.0 42 73
- 3.18512 1 2 tcp 1040 ------- 0 0.0 2.0 42 73
r 3.18928 0 1 tcp 1040 ------- 0 0.0 2.0 43 74
+ 3.18928 1 2 tcp 1040 ------- 0 0.0 2.0 43 74
- 3.18928 1 2 tcp 1040 ------- 0 0.0 2.0 43 74
r 3.19344 0 1 tcp 1040 ------- 0 0.0 2.0 44 75
+ 3.19344 1 2 tcp 1040 ------- 0 0.0 2.0 44 75
- 3.19344 1 2 tcp 1040 ------- 0 0.0 2.0 44 75
r 3.1976 0 1 tcp 1040 ------- 0 0.0 2.0 45 76
+ 3.1976 1 2 tcp 1040 ------- 0 0.0 2.0 45 76
- 3.1976 1 2 tcp 1040 ------- 0 0.0 2.0 45 76
r 3.20176 0 1 tcp 1040 ------- 0 0.0 2.0 46 77
+ 3.20176 1 2 tcp 1040 ------- 0 0.0 2.0 46 77
- 3.20176 1 2 tcp 1040 ------- 0 0.0 2.0 46 77
r 3.20592 0 1 tcp 1040 ------- 0 0.0 2.0 47 78
+ 3.20592 1 2 tcp 1040 ------- 0 0.0 2.0 47 78
- 3.20592 1 2 tcp 1040 ------- 0 0.0 2.0 47 78
r 3.21008 0 1 tcp 1040 ------- 0 0.0 2.0 48 79
+ 3.21008 1 2 tcp 1040 ------- 0 0.0 2.0 48 79
- 3.21008 1 2 tcp 1040 ------- 0 0.0 2.0 48 79
r 3.21424 0 1 tcp 1040 ------- 0 0.0 2.0 49 80
+ 3.21424 1 2 tcp 1040 ------- 0 0.0 2.0 49 80
- 3.21424 1 2 tcp 1040 ------- 0 0.0 2.0 49 80
r 3.2184 0 1 tcp 1040 ------- 0 0.0 2.0 50 81
+ 3.2184 1 2 tcp 1040 ------- 0 0.0 2.0 50 81
- 3.2184 1 2 tcp 1040 ------- 0 0.0 2.0 50 81
r 3.24352 1 2 tcp 1040 ------- 0 0.0 2.0 31 62
+ 3.24352 2 1 ack 40 ------- 0 2.0 0.0 31 82
- 3.24352 2 1 ack 40 ------- 0 2.0 0.0 31 82
r 3.24768 1 2 tcp 1040 ------- 0 0.0 2.0 32 63
+ 3.24768 2 1 ack 40 ------- 0 2.0 0.0 32 83
- 3.24768 2 1 ack 40 ------- 0 2.0 0.0 32 83
r 3.25184 1 2 tcp 1040 ------- 0 0.0 2.0 33 64
+ 3.25184 2 1 ack 40 ------- 0 2.0 0.0 33 84
- 3.25184 2 1 ack 40 ------- 0 2.0 0.0 33 84
r 3.256 1 2 tcp 1040 ------- 0 0.0 2.0 34 65
+ 3.256 2 1 ack 40 ------- 0 2.0 0.0 34 85
- 3.256 2 1 ack 40 ------- 0 2.0 0.0 34 85
r 3.26016 1 2 tcp 1040 ------- 0 0.0 2.0 35 66
+ 3.26016 2 1 ack 40 ------- 0 2.0 0.0 35 86
- 3.26016 2 1 ack 40 ------- 0 2.0 0.0 35 86
r 3.26432 1 2 tcp 1040 ------- 0 0.0 2.0 36 67
+ 3.26432 2 1 ack 40 ------- 0 2.0 0.0 36 87
- 3.26432 2 1 ack 40 ------- 0 2.0 0.0 36 87
r 3.26848 1 2 tcp 1040 ------- 0 0.0 2.0 37 68
+ 3.26848 2 1 ack 40 ------- 0 2.0 0.0 37 88
- 3.26848 2 1 ack 40 ------- 0 2.0 0.0 37 88
r 3.27264 1 2 tcp 1040 ------- 0 0.0 2.0 38 69
+ 3.27264 2 1 ack 40 ------- 0 2.0 0.0 38 89
- 3.27264 2 1 ack 40 ------- 0 2.0 0.0 38 89
r 3.2768 1 2 tcp 1040 ------- 0 0.0 2.0 39 70
+ 3.2768 2 1 ack 40 ------- 0 2.0 0.0 39 90
- 3.2768 2 1 ack 40 ------- 0 2.0 0.0 39 90
r 3.28096 1 2 tcp 1040 ------- 0 0.0 2.0 40 71
+ 3.28096 2 1 ack 40 ------- 0 2.0 0.0 40 91
- 3.28096 2 1 ack 40 ------- 0 2.0 0.0 40 91
r 3.28512 1 2 tcp 1040 ------- 0 0.0 2.0 41 72
+ 3.28512 2 1 ack 40 ------- 0 2.0 0.0 41 92
- 3.28512 2 1 ack 40 ------- 0 2.0 0.0 41 92
r 3.28928 1 2 tcp 1040 ------- 0 0.0 2.0 42 73
+ 3.28928 2 1 ack 40 ------- 0 2.0 0.0 42 93
- 3.28928 2 1 ack 40 ------- 0 2.0 0.0 42 93
r 3.29344 1 2 tcp 1040 ------- 0 0.0 2.0 43 74
+ 3.29344 2 1 ack 40 ------- 0 2.0 0.0 43 94
- 3.29344 2 1 ack 40 ------- 0 2.0 0.0 43 94
r 3.2976 1 2 tcp 1040 ------- 0 0.0 2.0 44 75
+ 3.2976 2 1 ack 40 ------- 0 2.0 0.0 44 95
- 3.2976 2 1 ack 40 ------- 0 2.0 0.0 44 95
r 3.30176 1 2 tcp 1040 ------- 0 0.0 2.0 45 76
+ 3.30176 2 1 ack 40 ------- 0 2.0 0.0 45 96
- 3.30176 2 1 ack 40 ------- 0 2.0 0.0 45 96
r 3.30592 1 2 tcp 1040 ------- 0 0.0 2.0 46 77
+ 3.30592 2 1 ack 40 ------- 0 2.0 0.0 46 97
- 3.30592 2 1 ack 40 ------- 0 2.0 0.0 46 97
r 3.31008 1 2 tcp 1040 ------- 0 0.0 2.0 47 78
+ 3.31008 2 1 ack 40 ------- 0 2.0 0.0 47 98
- 3.31008 2 1 ack 40 ------- 0 2.0 0.0 47 98
r 3.31424 1 2 tcp 1040 ------- 0 0.0 2.0 48 79
+ 3.31424 2 1 ack 40 ------- 0 2.0 0.0 48 99
- 3.31424 2 1 ack 40 ------- 0 2.0 0.0 48 99
r 3.3184 1 2 tcp 1040 ------- 0 0.0 2.0 49 80
+ 3.3184 2 1 ack 40 ------- 0 2.0 0.0 49 100
- 3.3184 2 1 ack 40 ------- 0 2.0 0.0 49 100
r 3.32256 1 2 tcp 1040 ------- 0 0.0 2.0 50 81
+ 3.32256 2 1 ack 40 ------- 0 2.0 0.0 50 101
- 3.32256 2 1 ack 40 ------- 0 2.0 0.0 50 101
r 3.34368 2 1 ack 40 ------- 0 2.0 0.0 31 82
+ 3.34368 1 0 ack 40 ------- 0 2.0 0.0 31 82
- 3.34368 1 0 ack 40 ------- 0 2.0 0.0 31 82
r 3.34784 2 1 ack 40 ------- 0 2.0 0.0 32 83
+ 3.34784 1 0 ack 40 ------- 0 2.0 0.0 32 83
- 3.34784 1 0 ack 40 ------- 0 2.0 0.0 32 83
r 3.352 2 1 ack 40 ------- 0 2.0 0.0 33 84
+ 3.352 1 0 ack 40 ------- 0 2.0 0.0 33 84
- 3.352 1 0 ack 40 ------- 0 2.0 0.0 33 84
r 3.35616 2 1 ack 40 ------- 0 2.0 0.0 34 85
+ 3.35616 1 0 ack 40 ------- 0 2.0 0.0 34 85
- 3.35616 1 0 ack 40 ------- 0 2.0 0.0 34 85
r 3.36032 2 1 ack 40 ------- 0 2.0 0.0 35 86
+ 3.36032 1 0 ack 40 ------- 0 2.0 0.0 35 86
- 3.36032 1 0 ack 40 ------- 0 2.0 0.0 35 86
r 3.36448 2 1 ack 40 ------- 0 2.0 0.0 36 87
+ 3.36448 1 0 ack 40 ------- 0 2.0 0.0 36 87
- 3.36448 1 0 ack 40 ------- 0 2.0 0.0 36 87
r 3.36864 2 1 ack 40 ------- 0 2.0 0.0 37 88
+ 3.36864 1 0 ack 40 ------- 0 2.0 0.0 37 88
- 3.36864 1 0 ack 40 ------- 0 2.0 0.0 37 88
r 3.3728 2 1 ack 40 ------- 0 2.0 0.0 38 89
+ 3.3728 1 0 ack 40 ------- 0 2.0 0.0 38 89
- 3.3728 1 0 ack 40 ------- 0 2.0 0.0 38 89
r 3.37696 2 1 ack 40 ------- 0 2.0 0.0 39 90
+ 3.37696 1 0 ack 40 ------- 0 2.0 0.0 39 90
- 3.37696 1 0 ack 40 ------- 0 2.0 0.0 39 90
r 3.38112 2 1 ack 40 ------- 0 2.0 0.0 40 91
+ 3.38112 1 0 ack 40 ------- 0 2.0 0.0 40 91
- 3.38112 1 0 ack 40 ------- 0 2.0 0.0 40 91
r 3.38528 2 1 ack 40 ------- 0 2.0 0.0 41 92
+ 3.38528 1 0 ack 40 ------- 0 2.0 0.0 41 92
- 3.38528 1 0 ack 40 ------- 0 2.0 0.0 41 92
r 3.38944 2 1 ack 40 ------- 0 2.0 0.0 42 93
+ 3.38944 1 0 ack 40 ------- 0 2.0 0.0 42 93
- 3.38944 1 0 ack 40 ------- 0 2.0 0.0 42 93
r 3.3936 2 1 ack 40 ------- 0 2.0 0.0 43 94
+ 3.3936 1 0 ack 40 ------- 0 2.0 0.0 43 94
- 3.3936 1 0 ack 40 ------- 0 2.0 0.0 43 94
r 3.39776 2 1 ack 40 ------- 0 2.0 0.0 44 95
+ 3.39776 1 0 ack 40 ------- 0 2.0 0.0 44 95
- 3.39776 1 0 ack 40 ------- 0 2.0 0.0 44 95
r 3.40192 2 1 ack 40 ------- 0 2.0 0.0 45 96
+ 3.40192 1 0 ack 40 ------- 0 2.0 0.0 45 96
- 3.40192 1 0 ack 40 ------- 0 2.0 0.0 45 96
r 3.40608 2 1 ack 40 ------- 0 2.0 0.0 46 97
+ 3.40608 1 0 ack 40 ------- 0 2.0 0.0 46 97
- 3.40608 1 0 ack 40 ------- 0 2.0 0.0 46 97
r 3.41024 2 1 ack 40 ------- 0 2.0 0.0 47 98
+ 3.41024 1 0 ack 40 ------- 0 2.0 0.0 47 98
- 3.41024 1 0 ack 40 ------- 0 2.0 0.0 47 98
r 3.4144 2 1 ack 40 ------- 0 2.0 0.0 48 99
+ 3.4144 1 0 ack 40 ------- 0 2.0 0.0 48 99
- 3.4144 1 0 ack 40 ------- 0 2.0 0.0 48 99
r 3.41856 2 1 ack 40 ------- 0 2.0 0.0 49 100
+ 3.41856 1 0 ack 40 ------- 0 2.0 0.0 49 100
- 3.41856 1 0 ack 40 ------- 0 2.0 0.0 49 100
r 3.42272 2 1 ack 40 ------- 0 2.0 0.0 50 101
+ 3.42272 1 0 ack 40 ------- 0 2.0 0.0 50 101
- 3.42272 1 0 ack 40 ------- 0 2.0 0.0 50 101
r 3.44384 1 0 ack 40 ------- 0 2.0 0.0 31 82
+ 3.44384 0 1 tcp 1040 ------- 0 0.0 2.0 51 102
- 3.44384 0 1 tcp 1040 ------- 0 0.0 2.0 51 102
r 3.448 1 0 ack 40 ------- 0 2.0 0.0 32 83
+ 3.448 0 1 tcp 1040 ------- 0 0.0 2.0 52 103
- 3.448 0 1 tcp 1040 ------- 0 0.0 2.0 52 103
r 3.45216 1 0 ack 40 ------- 0 2.0 0.0 33 84
+ 3.45216 0 1 tcp 1040 ------- 0 0.0 2.0 53 104
- 3.45216 0 1 tcp 1040 ------- 0 0.0 2.0 53 104
r 3.45632 1 0 ack 40 ------- 0 2.0 0.0 34 85
+ 3.45632 0 1 tcp 1040 ------- 0 0.0 2.0 54 105
- 3.45632 0 1 tcp 1040 ------- 0 0.0 2.0 54 105
r 3.46048 1 0 ack 40 ------- 0 2.0 0.0 35 86
+ 3.46048 0 1 tcp 1040 ------- 0 0.0 2.0 55 106
- 3.46048 0 1 tcp 1040 ------- 0 0.0 2.0 55 106
r 3.46464 1 0 ack 40 ------- 0 2.0 0.0 36 87
+ 3.46464 0 1 tcp 1040 ------- 0 0.0 2.0 56 107
- 3.46464 0 1 tcp 1040 ------- 0 0.0 2.0 56 107
r 3.4688 1 0 ack 40 ------- 0 2.0 0.0 37 88
+ 3.4688 0 1 tcp 1040 ------- 0 0.0 2.0 57 108
- 3.4688 0 1 tcp 1040 ------- 0 0.0 2.0 57 108
r 3.47296 1 0 ack 40 ------- 0 2.0 0.0 38 89
+ 3.47296 0 1 tcp 1040 ------- 0 0.0 2.0 58 109
- 3.47296 0 1 tcp 1040 ------- 0 0.0 2.0 58 109
r 3.47712 1 0 ack 40 ------- 0 2.0 0.0 39 90
+ 3.47712 0 1 tcp 1040 ------- 0 0.0 2.0 59 110
- 3.47712 0 1 tcp 1040 ------- 0 0.0 2.0 59 110
r 3.48128 1 0 ack 40 ------- 0 2.0 0.0 40 91
+ 3.48128 0 1 tcp 1040 ------- 0 0.0 2.0 60 111
- 3.48128 0 1 tcp 1040 ------- 0 0.0 2.0 60 111
r 3.48544 1 0 ack 40 ------- 0 2.0 0.0 41 92
+ 3.48544 0 1 tcp 1040 ------- 0 0.0 2.0 61 112
- 3.48544 0 1 tcp 1040 ------- 0 0.0 2.0 61 112
r 3.4896 1 0 ack 40 ------- 0 2.0 0.0 42 93
+ 3.4896 0 1 tcp 1040 ------- 0 0.0 2.0 62 113
- 3.4896 0 1 tcp 1040 ------- 0 0.0 2.0 62 113
r 3.49376 1 0 ack 40 ------- 0 2.0 0.0 43 94
+ 3.49376 0 1 tcp 1040 ------- 0 0.0 2.0 63 114
- 3.49376 0 1 tcp 1040 ------- 0 0.0 2.0 63 114
r 3.49792 1 0 ack 40 ------- 0 2.0 0.0 44 95
+ 3.49792 0 1 tcp 1040 ------- 0 0.0 2.0 64 115
- 3.49792 0 1 tcp 1040 ------- 0 0.0 2.0 64 115
r 3.50208 1 0 ack 40 ------- 0 2.0 0.0 45 96
+ 3.50208 0 1 tcp 1040 ------- 0 0.0 2.0 65 116
- 3.50208 0 1 tcp 1040 ------- 0 0.0 2.0 65 116
r 3.50624 1 0 ack 40 ------- 0 2.0 0.0 46 97
+ 3.50624 0 1 tcp 1040 ------- 0 0.0 2.0 66 117
- 3.50624 0 1 tcp 1040 ------- 0 0.0 2.0 66 117
r 3.5104 1 0 ack 40 ------- 0 2.0 0.0 47 98
+ 3.5104 0 1 tcp 1040 ------- 0 0.0 2.0 67 118
- 3.5104 0 1 tcp 1040 ------- 0 0.0 2.0 67 118
r 3.51456 1 0 ack 40 ------- 0 2.0 0.0 48 99
+ 3.51456 0 1 tcp 1040 ------- 0 0.0 2.0 68 119
- 3.51456 0 1 tcp 1040 ------- 0 0.0 2.0 68 119
r 3.51872 1 0 ack 40 ------- 0 2.0 0.0 49 100
+ 3.51872 0 1 tcp 1040 ------- 0 0.0 2.0 69 120
- 3.51872 0 1 tcp 1040 ------- 0 0.0 2.0 69 120
r 3.52288 1 0 ack 40 ------- 0 2.0 0.0 50 101
+ 3.52288 0 1 tcp 1040 ------- 0 0.0 2.0 70 121
- 3.52288 0 1 tcp 1040 ------- 0 0.0 2.0 70 121
r 3.548 0 1 tcp 1040 ------- 0 0.0 2.0 51 102
+ 3.548 1 2 tcp 1040 ------- 0 0.0 2.0 51 102
- 3.548 1 2 tcp 1040 ------- 0 0.0 2.0 51 102
r 3.55216 0 1 tcp 1040 ------- 0 0.0 2.0 52 103
+ 3.55216 1 2 tcp 1040 ------- 0 0.0 2.0 52 103